ITEM: TIMESTEP
0
ITEM: NUMBER OF ATOMS
2
ITEM: BOX BOUNDS
-10.7281	10.7281
-10.7281	10.7281
-2.10084	2.10084
ITEM: ATOMS index type q x y z
     0	1	1	-10.2281	-10.2281	-1.60083
     1	-1	-1	-10.2281	-10.2281	-0.600829
ITEM: TIMESTEP
1
ITEM: NUMBER OF ATOMS
2
ITEM: BOX BOUNDS
-10.7281	10.7281
-10.7281	10.7281
-2.10084	2.10084
ITEM: ATOMS index type q x y z
     0	1	1	-10.2281	-10.2281	-1.60079
     1	-1	-1	-10.2281	-10.2281	-0.600794
ITEM: TIMESTEP
2
ITEM: NUMBER OF ATOMS
2
ITEM: BOX BOUNDS
-10.7281	10.7281
-10.7281	10.7281
-2.10084	2.10084
ITEM: ATOMS index type q x y z
     0	1	1	-10.2281	-10.2281	-1.60073
     1	-1	-1	-10.2281	-10.2281	-0.600737
ITEM: TIMESTEP
3
ITEM: NUMBER OF ATOMS
2
ITEM: BOX BOUNDS
-10.7281	10.7281
-10.7281	10.7281
-2.10084	2.10084
ITEM: ATOMS index type q x y z
     0	1	1	-10.2281	-10.2281	-1.60064
     1	-1	-1	-10.2281	-10.2281	-0.600656
ITEM: TIMESTEP
4
ITEM: NUMBER OF ATOMS
2
ITEM: BOX BOUNDS
-10.7281	10.7281
-10.7281	10.7281
-2.10084	2.10084
ITEM: ATOMS index type q x y z
     0	1	1	-10.2281	-10.2281	-1.60053
     1	-1	-1	-10.2281	-10.2281	-0.600553
ITEM: TIMESTEP
5
ITEM: NUMBER OF ATOMS
2
ITEM: BOX BOUNDS
-10.7281	10.7281
-10.7281	10.7281
-2.10084	2.10084
ITEM: ATOMS index type q x y z
     0	1	1	-10.2281	-10.2281	-1.60039
     1	-1	-1	-10.2281	-10.2281	-0.600426
ITEM: TIMESTEP
6
ITEM: NUMBER OF ATOMS
2
ITEM: BOX BOUNDS
-10.7281	10.7281
-10.7281	10.7281
-2.10084	2.10084
ITEM: ATOMS index type q x y z
     0	1	1	-10.2281	-10.2281	-1.60023
     1	-1	-1	-10.2281	-10.2281	-0.600277
ITEM: TIMESTEP
7
ITEM: NUMBER OF ATOMS
2
ITEM: BOX BOUNDS
-10.7281	10.7281
-10.7281	10.7281
-2.10084	2.10084
ITEM: ATOMS index type q x y z
     0	1	1	-10.2281	-10.2281	-1.60005
     1	-1	-1	-10.2281	-10.2281	-0.600104
ITEM: TIMESTEP
8
ITEM: NUMBER OF ATOMS
2
ITEM: BOX BOUNDS
-10.7281	10.7281
-10.7281	10.7281
-2.10084	2.10084
ITEM: ATOMS index type q x y z
     0	1	1	-10.2281	-10.2281	-1.59984
     1	-1	-1	-10.2281	-10.2281	-0.599909
ITEM: TIMESTEP
9
ITEM: NUMBER OF ATOMS
2
ITEM: BOX BOUNDS
-10.7281	10.7281
-10.7281	10.7281
-2.10084	2.10084
ITEM: ATOMS index type q x y z
     0	1	1	-10.2281	-10.2281	-1.59961
     1	-1	-1	-10.2281	-10.2281	-0.59969
ITEM: TIMESTEP
10
ITEM: NUMBER OF ATOMS
2
ITEM: BOX BOUNDS
-10.7281	10.7281
-10.7281	10.7281
-2.10084	2.10084
ITEM: ATOMS index type q x y z
     0	1	1	-10.2281	-10.2281	-1.59936
     1	-1	-1	-10.2281	-10.2281	-0.599448
ITEM: TIMESTEP
11
ITEM: NUMBER OF ATOMS
2
ITEM: BOX BOUNDS
-10.7281	10.7281
-10.7281	10.7281
-2.10084	2.10084
ITEM: ATOMS index type q x y z
     0	1	1	-10.2281	-10.2281	-1.59908
     1	-1	-1	-10.2281	-10.2281	-0.599184
ITEM: TIMESTEP
12
ITEM: NUMBER OF ATOMS
2
ITEM: BOX BOUNDS
-10.7281	10.7281
-10.7281	10.7281
-2.10084	2.10084
ITEM: ATOMS index type q x y z
     0	1	1	-10.2281	-10.2281	-1.59878
     1	-1	-1	-10.2281	-10.2281	-0.598896
ITEM: TIMESTEP
13
ITEM: NUMBER OF ATOMS
2
ITEM: BOX BOUNDS
-10.7281	10.7281
-10.7281	10.7281
-2.10084	2.10084
ITEM: ATOMS index type q x y z
     0	1	1	-10.2281	-10.2281	-1.59846
     1	-1	-1	-10.2281	-10.2281	-0.598585
ITEM: TIMESTEP
14
ITEM: NUMBER OF ATOMS
2
ITEM: BOX BOUNDS
-10.7281	10.7281
-10.7281	10.7281
-2.10084	2.10084
ITEM: ATOMS index type q x y z
     0	1	1	-10.2281	-10.2281	-1.59812
     1	-1	-1	-10.2281	-10.2281	-0.598251
ITEM: TIMESTEP
15
ITEM: NUMBER OF ATOMS
2
ITEM: BOX BOUNDS
-10.7281	10.7281
-10.7281	10.7281
-2.10084	2.10084
ITEM: ATOMS index type q x y z
     0	1	1	-10.2281	-10.2281	-1.59776
     1	-1	-1	-10.2281	-10.2281	-0.597894
ITEM: TIMESTEP
16
ITEM: NUMBER OF ATOMS
2
ITEM: BOX BOUNDS
-10.7281	10.7281
-10.7281	10.7281
-2.10084	2.10084
ITEM: ATOMS index type q x y z
     0	1	1	-10.2281	-10.2281	-1.59738
     1	-1	-1	-10.2281	-10.2281	-0.597514
ITEM: TIMESTEP
17
ITEM: NUMBER OF ATOMS
2
ITEM: BOX BOUNDS
-10.7281	10.7281
-10.7281	10.7281
-2.10084	2.10084
ITEM: ATOMS index type q x y z
     0	1	1	-10.2281	-10.2281	-1.59698
     1	-1	-1	-10.2281	-10.2281	-0.597111
ITEM: TIMESTEP
18
ITEM: NUMBER OF ATOMS
2
ITEM: BOX BOUNDS
-10.7281	10.7281
-10.7281	10.7281
-2.10084	2.10084
ITEM: ATOMS index type q x y z
     0	1	1	-10.2281	-10.2281	-1.59656
     1	-1	-1	-10.2281	-10.2281	-0.596684
ITEM: TIMESTEP
19
ITEM: NUMBER OF ATOMS
2
ITEM: BOX BOUNDS
-10.7281	10.7281
-10.7281	10.7281
-2.10084	2.10084
ITEM: ATOMS index type q x y z
     0	1	1	-10.2281	-10.2281	-1.59613
     1	-1	-1	-10.2281	-10.2281	-0.596235
ITEM: TIMESTEP
20
ITEM: NUMBER OF ATOMS
2
ITEM: BOX BOUNDS
-10.7281	10.7281
-10.7281	10.7281
-2.10084	2.10084
ITEM: ATOMS index type q x y z
     0	1	1	-10.2281	-10.2281	-1.59568
     1	-1	-1	-10.2281	-10.2281	-0.595762
ITEM: TIMESTEP
21
ITEM: NUMBER OF ATOMS
2
ITEM: BOX BOUNDS
-10.7281	10.7281
-10.7281	10.7281
-2.10084	2.10084
ITEM: ATOMS index type q x y z
     0	1	1	-10.2281	-10.2281	-1.59521
     1	-1	-1	-10.2281	-10.2281	-0.595267
ITEM: TIMESTEP
22
ITEM: NUMBER OF ATOMS
2
ITEM: BOX BOUNDS
-10.7281	10.7281
-10.7281	10.7281
-2.10084	2.10084
ITEM: ATOMS index type q x y z
     0	1	1	-10.2281	-10.2281	-1.59472
     1	-1	-1	-10.2281	-10.2281	-0.594748
ITEM: TIMESTEP
23
ITEM: NUMBER OF ATOMS
2
ITEM: BOX BOUNDS
-10.7281	10.7281
-10.7281	10.7281
-2.10084	2.10084
ITEM: ATOMS index type q x y z
     0	1	1	-10.2281	-10.2281	-1.59423
     1	-1	-1	-10.2281	-10.2281	-0.594206
ITEM: TIMESTEP
24
ITEM: NUMBER OF ATOMS
2
ITEM: BOX BOUNDS
-10.7281	10.7281
-10.7281	10.7281
-2.10084	2.10084
ITEM: ATOMS index type q x y z
     0	1	1	-10.2281	-10.2281	-1.59371
     1	-1	-1	-10.2281	-10.2281	-0.593641
ITEM: TIMESTEP
25
ITEM: NUMBER OF ATOMS
2
ITEM: BOX BOUNDS
-10.7281	10.7281
-10.7281	10.7281
-2.10084	2.10084
ITEM: ATOMS index type q x y z
     0	1	1	-10.2281	-10.2281	-1.59319
     1	-1	-1	-10.2281	-10.2281	-0.593053
ITEM: TIMESTEP
26
ITEM: NUMBER OF ATOMS
2
ITEM: BOX BOUNDS
-10.7281	10.7281
-10.7281	10.7281
-2.10084	2.10084
ITEM: ATOMS index type q x y z
     0	1	1	-10.2281	-10.2281	-1.59265
     1	-1	-1	-10.2281	-10.2281	-0.592442
ITEM: TIMESTEP
27
ITEM: NUMBER OF ATOMS
2
ITEM: BOX BOUNDS
-10.7281	10.7281
-10.7281	10.7281
-2.10084	2.10084
ITEM: ATOMS index type q x y z
     0	1	1	-10.2281	-10.2281	-1.59209
     1	-1	-1	-10.2281	-10.2281	-0.591808
ITEM: TIMESTEP
28
ITEM: NUMBER OF ATOMS
2
ITEM: BOX BOUNDS
-10.7281	10.7281
-10.7281	10.7281
-2.10084	2.10084
ITEM: ATOMS index type q x y z
     0	1	1	-10.2281	-10.2281	-1.59153
     1	-1	-1	-10.2281	-10.2281	-0.591151
ITEM: TIMESTEP
29
ITEM: NUMBER OF ATOMS
2
ITEM: BOX BOUNDS
-10.7281	10.7281
-10.7281	10.7281
-2.10084	2.10084
ITEM: ATOMS index type q x y z
     0	1	1	-10.2281	-10.2281	-1.59096
     1	-1	-1	-10.2281	-10.2281	-0.590472
ITEM: TIMESTEP
30
ITEM: NUMBER OF ATOMS
2
ITEM: BOX BOUNDS
-10.7281	10.7281
-10.7281	10.7281
-2.10084	2.10084
ITEM: ATOMS index type q x y z
     0	1	1	-10.2281	-10.2281	-1.59037
     1	-1	-1	-10.2281	-10.2281	-0.589769
ITEM: TIMESTEP
31
ITEM: NUMBER OF ATOMS
2
ITEM: BOX BOUNDS
-10.7281	10.7281
-10.7281	10.7281
-2.10084	2.10084
ITEM: ATOMS index type q x y z
     0	1	1	-10.2281	-10.2281	-1.58978
     1	-1	-1	-10.2281	-10.2281	-0.589043
ITEM: TIMESTEP
32
ITEM: NUMBER OF ATOMS
2
ITEM: BOX BOUNDS
-10.7281	10.7281
-10.7281	10.7281
-2.10084	2.10084
ITEM: ATOMS index type q x y z
     0	1	1	-10.2281	-10.2281	-1.58918
     1	-1	-1	-10.2281	-10.2281	-0.588295
ITEM: TIMESTEP
33
ITEM: NUMBER OF ATOMS
2
ITEM: BOX BOUNDS
-10.7281	10.7281
-10.7281	10.7281
-2.10084	2.10084
ITEM: ATOMS index type q x y z
     0	1	1	-10.2281	-10.2281	-1.58857
     1	-1	-1	-10.2281	-10.2281	-0.587524
ITEM: TIMESTEP
34
ITEM: NUMBER OF ATOMS
2
ITEM: BOX BOUNDS
-10.7281	10.7281
-10.7281	10.7281
-2.10084	2.10084
ITEM: ATOMS index type q x y z
     0	1	1	-10.2281	-10.2281	-1.58795
     1	-1	-1	-10.2281	-10.2281	-0.58673
ITEM: TIMESTEP
35
ITEM: NUMBER OF ATOMS
2
ITEM: BOX BOUNDS
-10.7281	10.7281
-10.7281	10.7281
-2.10084	2.10084
ITEM: ATOMS index type q x y z
     0	1	1	-10.2281	-10.2281	-1.58733
     1	-1	-1	-10.2281	-10.2281	-0.585913
ITEM: TIMESTEP
36
ITEM: NUMBER OF ATOMS
2
ITEM: BOX BOUNDS
-10.7281	10.7281
-10.7281	10.7281
-2.10084	2.10084
ITEM: ATOMS index type q x y z
     0	1	1	-10.2281	-10.2281	 -1.5867
     1	-1	-1	-10.2281	-10.2281	-0.585075
ITEM: TIMESTEP
37
ITEM: NUMBER OF ATOMS
2
ITEM: BOX BOUNDS
-10.7281	10.7281
-10.7281	10.7281
-2.10084	2.10084
ITEM: ATOMS index type q x y z
     0	1	1	-10.2281	-10.2281	-1.58607
     1	-1	-1	-10.2281	-10.2281	-0.584213
ITEM: TIMESTEP
38
ITEM: NUMBER OF ATOMS
2
ITEM: BOX BOUNDS
-10.7281	10.7281
-10.7281	10.7281
-2.10084	2.10084
ITEM: ATOMS index type q x y z
     0	1	1	-10.2281	-10.2281	-1.58543
     1	-1	-1	-10.2281	-10.2281	-0.583329
ITEM: TIMESTEP
39
ITEM: NUMBER OF ATOMS
2
ITEM: BOX BOUNDS
-10.7281	10.7281
-10.7281	10.7281
-2.10084	2.10084
ITEM: ATOMS index type q x y z
     0	1	1	-10.2281	-10.2281	-1.58479
     1	-1	-1	-10.2281	-10.2281	-0.582423
ITEM: TIMESTEP
40
ITEM: NUMBER OF ATOMS
2
ITEM: BOX BOUNDS
-10.7281	10.7281
-10.7281	10.7281
-2.10084	2.10084
ITEM: ATOMS index type q x y z
     0	1	1	-10.2281	-10.2281	-1.58414
     1	-1	-1	-10.2281	-10.2281	-0.581495
ITEM: TIMESTEP
41
ITEM: NUMBER OF ATOMS
2
ITEM: BOX BOUNDS
-10.7281	10.7281
-10.7281	10.7281
-2.10084	2.10084
ITEM: ATOMS index type q x y z
     0	1	1	-10.2281	-10.2281	 -1.5835
     1	-1	-1	-10.2281	-10.2281	-0.580545
ITEM: TIMESTEP
42
ITEM: NUMBER OF ATOMS
2
ITEM: BOX BOUNDS
-10.7281	10.7281
-10.7281	10.7281
-2.10084	2.10084
ITEM: ATOMS index type q x y z
     0	1	1	-10.2281	-10.2281	-1.58285
     1	-1	-1	-10.2281	-10.2281	-0.579573
ITEM: TIMESTEP
43
ITEM: NUMBER OF ATOMS
2
ITEM: BOX BOUNDS
-10.7281	10.7281
-10.7281	10.7281
-2.10084	2.10084
ITEM: ATOMS index type q x y z
     0	1	1	-10.2281	-10.2281	-1.58219
     1	-1	-1	-10.2281	-10.2281	-0.578579
ITEM: TIMESTEP
44
ITEM: NUMBER OF ATOMS
2
ITEM: BOX BOUNDS
-10.7281	10.7281
-10.7281	10.7281
-2.10084	2.10084
ITEM: ATOMS index type q x y z
     0	1	1	-10.2281	-10.2281	-1.58154
     1	-1	-1	-10.2281	-10.2281	-0.577564
ITEM: TIMESTEP
45
ITEM: NUMBER OF ATOMS
2
ITEM: BOX BOUNDS
-10.7281	10.7281
-10.7281	10.7281
-2.10084	2.10084
ITEM: ATOMS index type q x y z
     0	1	1	-10.2281	-10.2281	-1.58088
     1	-1	-1	-10.2281	-10.2281	-0.576527
ITEM: TIMESTEP
46
ITEM: NUMBER OF ATOMS
2
ITEM: BOX BOUNDS
-10.7281	10.7281
-10.7281	10.7281
-2.10084	2.10084
ITEM: ATOMS index type q x y z
     0	1	1	-10.2281	-10.2281	-1.58023
     1	-1	-1	-10.2281	-10.2281	-0.575468
ITEM: TIMESTEP
47
ITEM: NUMBER OF ATOMS
2
ITEM: BOX BOUNDS
-10.7281	10.7281
-10.7281	10.7281
-2.10084	2.10084
ITEM: ATOMS index type q x y z
     0	1	1	-10.2281	-10.2281	-1.57958
     1	-1	-1	-10.2281	-10.2281	-0.574389
ITEM: TIMESTEP
48
ITEM: NUMBER OF ATOMS
2
ITEM: BOX BOUNDS
-10.7281	10.7281
-10.7281	10.7281
-2.10084	2.10084
ITEM: ATOMS index type q x y z
     0	1	1	-10.2281	-10.2281	-1.57892
     1	-1	-1	-10.2281	-10.2281	-0.573288
ITEM: TIMESTEP
49
ITEM: NUMBER OF ATOMS
2
ITEM: BOX BOUNDS
-10.7281	10.7281
-10.7281	10.7281
-2.10084	2.10084
ITEM: ATOMS index type q x y z
     0	1	1	-10.2281	-10.2281	-1.57827
     1	-1	-1	-10.2281	-10.2281	-0.572167
ITEM: TIMESTEP
50
ITEM: NUMBER OF ATOMS
2
ITEM: BOX BOUNDS
-10.7281	10.7281
-10.7281	10.7281
-2.10084	2.10084
ITEM: ATOMS index type q x y z
     0	1	1	-10.2281	-10.2281	-1.57762
     1	-1	-1	-10.2281	-10.2281	-0.571025
ITEM: TIMESTEP
51
ITEM: NUMBER OF ATOMS
2
ITEM: BOX BOUNDS
-10.7281	10.7281
-10.7281	10.7281
-2.10084	2.10084
ITEM: ATOMS index type q x y z
     0	1	1	-10.2281	-10.2281	-1.57697
     1	-1	-1	-10.2281	-10.2281	-0.569862
ITEM: TIMESTEP
52
ITEM: NUMBER OF ATOMS
2
ITEM: BOX BOUNDS
-10.7281	10.7281
-10.7281	10.7281
-2.10084	2.10084
ITEM: ATOMS index type q x y z
     0	1	1	-10.2281	-10.2281	-1.57632
     1	-1	-1	-10.2281	-10.2281	-0.568679
ITEM: TIMESTEP
53
ITEM: NUMBER OF ATOMS
2
ITEM: BOX BOUNDS
-10.7281	10.7281
-10.7281	10.7281
-2.10084	2.10084
ITEM: ATOMS index type q x y z
     0	1	1	-10.2281	-10.2281	-1.57567
     1	-1	-1	-10.2281	-10.2281	-0.567476
ITEM: TIMESTEP
54
ITEM: NUMBER OF ATOMS
2
ITEM: BOX BOUNDS
-10.7281	10.7281
-10.7281	10.7281
-2.10084	2.10084
ITEM: ATOMS index type q x y z
     0	1	1	-10.2281	-10.2281	-1.57503
     1	-1	-1	-10.2281	-10.2281	-0.566253
ITEM: TIMESTEP
55
ITEM: NUMBER OF ATOMS
2
ITEM: BOX BOUNDS
-10.7281	10.7281
-10.7281	10.7281
-2.10084	2.10084
ITEM: ATOMS index type q x y z
     0	1	1	-10.2281	-10.2281	-1.57439
     1	-1	-1	-10.2281	-10.2281	-0.565011
ITEM: TIMESTEP
56
ITEM: NUMBER OF ATOMS
2
ITEM: BOX BOUNDS
-10.7281	10.7281
-10.7281	10.7281
-2.10084	2.10084
ITEM: ATOMS index type q x y z
     0	1	1	-10.2281	-10.2281	-1.57375
     1	-1	-1	-10.2281	-10.2281	-0.563749
ITEM: TIMESTEP
57
ITEM: NUMBER OF ATOMS
2
ITEM: BOX BOUNDS
-10.7281	10.7281
-10.7281	10.7281
-2.10084	2.10084
ITEM: ATOMS index type q x y z
     0	1	1	-10.2281	-10.2281	-1.57312
     1	-1	-1	-10.2281	-10.2281	-0.562468
ITEM: TIMESTEP
58
ITEM: NUMBER OF ATOMS
2
ITEM: BOX BOUNDS
-10.7281	10.7281
-10.7281	10.7281
-2.10084	2.10084
ITEM: ATOMS index type q x y z
     0	1	1	-10.2281	-10.2281	-1.57249
     1	-1	-1	-10.2281	-10.2281	-0.561168
ITEM: TIMESTEP
59
ITEM: NUMBER OF ATOMS
2
ITEM: BOX BOUNDS
-10.7281	10.7281
-10.7281	10.7281
-2.10084	2.10084
ITEM: ATOMS index type q x y z
     0	1	1	-10.2281	-10.2281	-1.57187
     1	-1	-1	-10.2281	-10.2281	-0.55985
ITEM: TIMESTEP
60
ITEM: NUMBER OF ATOMS
2
ITEM: BOX BOUNDS
-10.7281	10.7281
-10.7281	10.7281
-2.10084	2.10084
ITEM: ATOMS index type q x y z
     0	1	1	-10.2281	-10.2281	-1.57124
     1	-1	-1	-10.2281	-10.2281	-0.558513
ITEM: TIMESTEP
61
ITEM: NUMBER OF ATOMS
2
ITEM: BOX BOUNDS
-10.7281	10.7281
-10.7281	10.7281
-2.10084	2.10084
ITEM: ATOMS index type q x y z
     0	1	1	-10.2281	-10.2281	-1.57063
     1	-1	-1	-10.2281	-10.2281	-0.557157
ITEM: TIMESTEP
62
ITEM: NUMBER OF ATOMS
2
ITEM: BOX BOUNDS
-10.7281	10.7281
-10.7281	10.7281
-2.10084	2.10084
ITEM: ATOMS index type q x y z
     0	1	1	-10.2281	-10.2281	-1.57001
     1	-1	-1	-10.2281	-10.2281	-0.555784
ITEM: TIMESTEP
63
ITEM: NUMBER OF ATOMS
2
ITEM: BOX BOUNDS
-10.7281	10.7281
-10.7281	10.7281
-2.10084	2.10084
ITEM: ATOMS index type q x y z
     0	1	1	-10.2281	-10.2281	 -1.5694
     1	-1	-1	-10.2281	-10.2281	-0.554393
ITEM: TIMESTEP
64
ITEM: NUMBER OF ATOMS
2
ITEM: BOX BOUNDS
-10.7281	10.7281
-10.7281	10.7281
-2.10084	2.10084
ITEM: ATOMS index type q x y z
     0	1	1	-10.2281	-10.2281	 -1.5688
     1	-1	-1	-10.2281	-10.2281	-0.552985
ITEM: TIMESTEP
65
ITEM: NUMBER OF ATOMS
2
ITEM: BOX BOUNDS
-10.7281	10.7281
-10.7281	10.7281
-2.10084	2.10084
ITEM: ATOMS index type q x y z
     0	1	1	-10.2281	-10.2281	 -1.5682
     1	-1	-1	-10.2281	-10.2281	-0.551559
ITEM: TIMESTEP
66
ITEM: NUMBER OF ATOMS
2
ITEM: BOX BOUNDS
-10.7281	10.7281
-10.7281	10.7281
-2.10084	2.10084
ITEM: ATOMS index type q x y z
     0	1	1	-10.2281	-10.2281	-1.56761
     1	-1	-1	-10.2281	-10.2281	-0.550117
ITEM: TIMESTEP
67
ITEM: NUMBER OF ATOMS
2
ITEM: BOX BOUNDS
-10.7281	10.7281
-10.7281	10.7281
-2.10084	2.10084
ITEM: ATOMS index type q x y z
     0	1	1	-10.2281	-10.2281	-1.56702
     1	-1	-1	-10.2281	-10.2281	-0.548658
ITEM: TIMESTEP
68
ITEM: NUMBER OF ATOMS
2
ITEM: BOX BOUNDS
-10.7281	10.7281
-10.7281	10.7281
-2.10084	2.10084
ITEM: ATOMS index type q x y z
     0	1	1	-10.2281	-10.2281	-1.56643
     1	-1	-1	-10.2281	-10.2281	-0.547183
ITEM: TIMESTEP
69
ITEM: NUMBER OF ATOMS
2
ITEM: BOX BOUNDS
-10.7281	10.7281
-10.7281	10.7281
-2.10084	2.10084
ITEM: ATOMS index type q x y z
     0	1	1	-10.2281	-10.2281	-1.56585
     1	-1	-1	-10.2281	-10.2281	-0.545692
ITEM: TIMESTEP
70
ITEM: NUMBER OF ATOMS
2
ITEM: BOX BOUNDS
-10.7281	10.7281
-10.7281	10.7281
-2.10084	2.10084
ITEM: ATOMS index type q x y z
     0	1	1	-10.2281	-10.2281	-1.56528
     1	-1	-1	-10.2281	-10.2281	-0.544185
ITEM: TIMESTEP
71
ITEM: NUMBER OF ATOMS
2
ITEM: BOX BOUNDS
-10.7281	10.7281
-10.7281	10.7281
-2.10084	2.10084
ITEM: ATOMS index type q x y z
     0	1	1	-10.2281	-10.2281	-1.56471
     1	-1	-1	-10.2281	-10.2281	-0.542662
ITEM: TIMESTEP
72
ITEM: NUMBER OF ATOMS
2
ITEM: BOX BOUNDS
-10.7281	10.7281
-10.7281	10.7281
-2.10084	2.10084
ITEM: ATOMS index type q x y z
     0	1	1	-10.2281	-10.2281	-1.56415
     1	-1	-1	-10.2281	-10.2281	-0.541125
ITEM: TIMESTEP
73
ITEM: NUMBER OF ATOMS
2
ITEM: BOX BOUNDS
-10.7281	10.7281
-10.7281	10.7281
-2.10084	2.10084
ITEM: ATOMS index type q x y z
     0	1	1	-10.2281	-10.2281	-1.56359
     1	-1	-1	-10.2281	-10.2281	-0.539573
ITEM: TIMESTEP
74
ITEM: NUMBER OF ATOMS
2
ITEM: BOX BOUNDS
-10.7281	10.7281
-10.7281	10.7281
-2.10084	2.10084
ITEM: ATOMS index type q x y z
     0	1	1	-10.2281	-10.2281	-1.56303
     1	-1	-1	-10.2281	-10.2281	-0.538006
ITEM: TIMESTEP
75
ITEM: NUMBER OF ATOMS
2
ITEM: BOX BOUNDS
-10.7281	10.7281
-10.7281	10.7281
-2.10084	2.10084
ITEM: ATOMS index type q x y z
     0	1	1	-10.2281	-10.2281	-1.56248
     1	-1	-1	-10.2281	-10.2281	-0.536425
ITEM: TIMESTEP
76
ITEM: NUMBER OF ATOMS
2
ITEM: BOX BOUNDS
-10.7281	10.7281
-10.7281	10.7281
-2.10084	2.10084
ITEM: ATOMS index type q x y z
     0	1	1	-10.2281	-10.2281	-1.56194
     1	-1	-1	-10.2281	-10.2281	-0.53483
ITEM: TIMESTEP
77
ITEM: NUMBER OF ATOMS
2
ITEM: BOX BOUNDS
-10.7281	10.7281
-10.7281	10.7281
-2.10084	2.10084
ITEM: ATOMS index type q x y z
     0	1	1	-10.2281	-10.2281	 -1.5614
     1	-1	-1	-10.2281	-10.2281	-0.533221
ITEM: TIMESTEP
78
ITEM: NUMBER OF ATOMS
2
ITEM: BOX BOUNDS
-10.7281	10.7281
-10.7281	10.7281
-2.10084	2.10084
ITEM: ATOMS index type q x y z
     0	1	1	-10.2281	-10.2281	-1.56087
     1	-1	-1	-10.2281	-10.2281	-0.531599
ITEM: TIMESTEP
79
ITEM: NUMBER OF ATOMS
2
ITEM: BOX BOUNDS
-10.7281	10.7281
-10.7281	10.7281
-2.10084	2.10084
ITEM: ATOMS index type q x y z
     0	1	1	-10.2281	-10.2281	-1.56034
     1	-1	-1	-10.2281	-10.2281	-0.529964
ITEM: TIMESTEP
80
ITEM: NUMBER OF ATOMS
2
ITEM: BOX BOUNDS
-10.7281	10.7281
-10.7281	10.7281
-2.10084	2.10084
ITEM: ATOMS index type q x y z
     0	1	1	-10.2281	-10.2281	-1.55981
     1	-1	-1	-10.2281	-10.2281	-0.528316
ITEM: TIMESTEP
81
ITEM: NUMBER OF ATOMS
2
ITEM: BOX BOUNDS
-10.7281	10.7281
-10.7281	10.7281
-2.10084	2.10084
ITEM: ATOMS index type q x y z
     0	1	1	-10.2281	-10.2281	-1.55929
     1	-1	-1	-10.2281	-10.2281	-0.526656
ITEM: TIMESTEP
82
ITEM: NUMBER OF ATOMS
2
ITEM: BOX BOUNDS
-10.7281	10.7281
-10.7281	10.7281
-2.10084	2.10084
ITEM: ATOMS index type q x y z
     0	1	1	-10.2281	-10.2281	-1.55878
     1	-1	-1	-10.2281	-10.2281	-0.524984
ITEM: TIMESTEP
83
ITEM: NUMBER OF ATOMS
2
ITEM: BOX BOUNDS
-10.7281	10.7281
-10.7281	10.7281
-2.10084	2.10084
ITEM: ATOMS index type q x y z
     0	1	1	-10.2281	-10.2281	-1.55827
     1	-1	-1	-10.2281	-10.2281	 -0.5233
ITEM: TIMESTEP
84
ITEM: NUMBER OF ATOMS
2
ITEM: BOX BOUNDS
-10.7281	10.7281
-10.7281	10.7281
-2.10084	2.10084
ITEM: ATOMS index type q x y z
     0	1	1	-10.2281	-10.2281	-1.55776
     1	-1	-1	-10.2281	-10.2281	-0.521604
ITEM: TIMESTEP
85
ITEM: NUMBER OF ATOMS
2
ITEM: BOX BOUNDS
-10.7281	10.7281
-10.7281	10.7281
-2.10084	2.10084
ITEM: ATOMS index type q x y z
     0	1	1	-10.2281	-10.2281	-1.55726
     1	-1	-1	-10.2281	-10.2281	-0.519897
ITEM: TIMESTEP
86
ITEM: NUMBER OF ATOMS
2
ITEM: BOX BOUNDS
-10.7281	10.7281
-10.7281	10.7281
-2.10084	2.10084
ITEM: ATOMS index type q x y z
     0	1	1	-10.2281	-10.2281	-1.55677
     1	-1	-1	-10.2281	-10.2281	-0.518179
ITEM: TIMESTEP
87
ITEM: NUMBER OF ATOMS
2
ITEM: BOX BOUNDS
-10.7281	10.7281
-10.7281	10.7281
-2.10084	2.10084
ITEM: ATOMS index type q x y z
     0	1	1	-10.2281	-10.2281	-1.55627
     1	-1	-1	-10.2281	-10.2281	-0.51645
ITEM: TIMESTEP
88
ITEM: NUMBER OF ATOMS
2
ITEM: BOX BOUNDS
-10.7281	10.7281
-10.7281	10.7281
-2.10084	2.10084
ITEM: ATOMS index type q x y z
     0	1	1	-10.2281	-10.2281	-1.55579
     1	-1	-1	-10.2281	-10.2281	-0.514711
ITEM: TIMESTEP
89
ITEM: NUMBER OF ATOMS
2
ITEM: BOX BOUNDS
-10.7281	10.7281
-10.7281	10.7281
-2.10084	2.10084
ITEM: ATOMS index type q x y z
     0	1	1	-10.2281	-10.2281	 -1.5553
     1	-1	-1	-10.2281	-10.2281	-0.512961
ITEM: TIMESTEP
90
ITEM: NUMBER OF ATOMS
2
ITEM: BOX BOUNDS
-10.7281	10.7281
-10.7281	10.7281
-2.10084	2.10084
ITEM: ATOMS index type q x y z
     0	1	1	-10.2281	-10.2281	-1.55482
     1	-1	-1	-10.2281	-10.2281	-0.511202
ITEM: TIMESTEP
91
ITEM: NUMBER OF ATOMS
2
ITEM: BOX BOUNDS
-10.7281	10.7281
-10.7281	10.7281
-2.10084	2.10084
ITEM: ATOMS index type q x y z
     0	1	1	-10.2281	-10.2281	-1.55435
     1	-1	-1	-10.2281	-10.2281	-0.509434
ITEM: TIMESTEP
92
ITEM: NUMBER OF ATOMS
2
ITEM: BOX BOUNDS
-10.7281	10.7281
-10.7281	10.7281
-2.10084	2.10084
ITEM: ATOMS index type q x y z
     0	1	1	-10.2281	-10.2281	-1.55387
     1	-1	-1	-10.2281	-10.2281	-0.507656
ITEM: TIMESTEP
93
ITEM: NUMBER OF ATOMS
2
ITEM: BOX BOUNDS
-10.7281	10.7281
-10.7281	10.7281
-2.10084	2.10084
ITEM: ATOMS index type q x y z
     0	1	1	-10.2281	-10.2281	-1.55341
     1	-1	-1	-10.2281	-10.2281	-0.505869
ITEM: TIMESTEP
94
ITEM: NUMBER OF ATOMS
2
ITEM: BOX BOUNDS
-10.7281	10.7281
-10.7281	10.7281
-2.10084	2.10084
ITEM: ATOMS index type q x y z
     0	1	1	-10.2281	-10.2281	-1.55294
     1	-1	-1	-10.2281	-10.2281	-0.504073
ITEM: TIMESTEP
95
ITEM: NUMBER OF ATOMS
2
ITEM: BOX BOUNDS
-10.7281	10.7281
-10.7281	10.7281
-2.10084	2.10084
ITEM: ATOMS index type q x y z
     0	1	1	-10.2281	-10.2281	-1.55248
     1	-1	-1	-10.2281	-10.2281	-0.502269
ITEM: TIMESTEP
96
ITEM: NUMBER OF ATOMS
2
ITEM: BOX BOUNDS
-10.7281	10.7281
-10.7281	10.7281
-2.10084	2.10084
ITEM: ATOMS index type q x y z
     0	1	1	-10.2281	-10.2281	-1.55202
     1	-1	-1	-10.2281	-10.2281	-0.500456
ITEM: TIMESTEP
97
ITEM: NUMBER OF ATOMS
2
ITEM: BOX BOUNDS
-10.7281	10.7281
-10.7281	10.7281
-2.10084	2.10084
ITEM: ATOMS index type q x y z
     0	1	1	-10.2281	-10.2281	-1.55157
     1	-1	-1	-10.2281	-10.2281	-0.498636
ITEM: TIMESTEP
98
ITEM: NUMBER OF ATOMS
2
ITEM: BOX BOUNDS
-10.7281	10.7281
-10.7281	10.7281
-2.10084	2.10084
ITEM: ATOMS index type q x y z
     0	1	1	-10.2281	-10.2281	-1.55112
     1	-1	-1	-10.2281	-10.2281	-0.496808
ITEM: TIMESTEP
99
ITEM: NUMBER OF ATOMS
2
ITEM: BOX BOUNDS
-10.7281	10.7281
-10.7281	10.7281
-2.10084	2.10084
ITEM: ATOMS index type q x y z
     0	1	1	-10.2281	-10.2281	-1.55067
     1	-1	-1	-10.2281	-10.2281	-0.494972
ITEM: TIMESTEP
100
ITEM: NUMBER OF ATOMS
2
ITEM: BOX BOUNDS
-10.7281	10.7281
-10.7281	10.7281
-2.10084	2.10084
ITEM: ATOMS index type q x y z
     0	1	1	-10.2281	-10.2281	-1.55023
     1	-1	-1	-10.2281	-10.2281	-0.493129
ITEM: TIMESTEP
101
ITEM: NUMBER OF ATOMS
2
ITEM: BOX BOUNDS
-10.7281	10.7281
-10.7281	10.7281
-2.10084	2.10084
ITEM: ATOMS index type q x y z
     0	1	1	-10.2281	-10.2281	-1.54979
     1	-1	-1	-10.2281	-10.2281	-0.491279
ITEM: TIMESTEP
102
ITEM: NUMBER OF ATOMS
2
ITEM: BOX BOUNDS
-10.7281	10.7281
-10.7281	10.7281
-2.10084	2.10084
ITEM: ATOMS index type q x y z
     0	1	1	-10.2281	-10.2281	-1.54935
     1	-1	-1	-10.2281	-10.2281	-0.489423
ITEM: TIMESTEP
103
ITEM: NUMBER OF ATOMS
2
ITEM: BOX BOUNDS
-10.7281	10.7281
-10.7281	10.7281
-2.10084	2.10084
ITEM: ATOMS index type q x y z
     0	1	1	-10.2281	-10.2281	-1.54891
     1	-1	-1	-10.2281	-10.2281	-0.48756
ITEM: TIMESTEP
104
ITEM: NUMBER OF ATOMS
2
ITEM: BOX BOUNDS
-10.7281	10.7281
-10.7281	10.7281
-2.10084	2.10084
ITEM: ATOMS index type q x y z
     0	1	1	-10.2281	-10.2281	-1.54848
     1	-1	-1	-10.2281	-10.2281	-0.485691
ITEM: TIMESTEP
105
ITEM: NUMBER OF ATOMS
2
ITEM: BOX BOUNDS
-10.7281	10.7281
-10.7281	10.7281
-2.10084	2.10084
ITEM: ATOMS index type q x y z
     0	1	1	-10.2281	-10.2281	-1.54805
     1	-1	-1	-10.2281	-10.2281	-0.483816
ITEM: TIMESTEP
106
ITEM: NUMBER OF ATOMS
2
ITEM: BOX BOUNDS
-10.7281	10.7281
-10.7281	10.7281
-2.10084	2.10084
ITEM: ATOMS index type q x y z
     0	1	1	-10.2281	-10.2281	-1.54762
     1	-1	-1	-10.2281	-10.2281	-0.481934
ITEM: TIMESTEP
107
ITEM: NUMBER OF ATOMS
2
ITEM: BOX BOUNDS
-10.7281	10.7281
-10.7281	10.7281
-2.10084	2.10084
ITEM: ATOMS index type q x y z
     0	1	1	-10.2281	-10.2281	 -1.5472
     1	-1	-1	-10.2281	-10.2281	-0.480048
ITEM: TIMESTEP
108
ITEM: NUMBER OF ATOMS
2
ITEM: BOX BOUNDS
-10.7281	10.7281
-10.7281	10.7281
-2.10084	2.10084
ITEM: ATOMS index type q x y z
     0	1	1	-10.2281	-10.2281	-1.54678
     1	-1	-1	-10.2281	-10.2281	-0.478156
ITEM: TIMESTEP
109
ITEM: NUMBER OF ATOMS
2
ITEM: BOX BOUNDS
-10.7281	10.7281
-10.7281	10.7281
-2.10084	2.10084
ITEM: ATOMS index type q x y z
     0	1	1	-10.2281	-10.2281	-1.54636
     1	-1	-1	-10.2281	-10.2281	-0.476258
ITEM: TIMESTEP
110
ITEM: NUMBER OF ATOMS
2
ITEM: BOX BOUNDS
-10.7281	10.7281
-10.7281	10.7281
-2.10084	2.10084
ITEM: ATOMS index type q x y z
     0	1	1	-10.2281	-10.2281	-1.54594
     1	-1	-1	-10.2281	-10.2281	-0.474356
ITEM: TIMESTEP
111
ITEM: NUMBER OF ATOMS
2
ITEM: BOX BOUNDS
-10.7281	10.7281
-10.7281	10.7281
-2.10084	2.10084
ITEM: ATOMS index type q x y z
     0	1	1	-10.2281	-10.2281	-1.54552
     1	-1	-1	-10.2281	-10.2281	-0.472449
ITEM: TIMESTEP
112
ITEM: NUMBER OF ATOMS
2
ITEM: BOX BOUNDS
-10.7281	10.7281
-10.7281	10.7281
-2.10084	2.10084
ITEM: ATOMS index type q x y z
     0	1	1	-10.2281	-10.2281	-1.54511
     1	-1	-1	-10.2281	-10.2281	-0.470538
ITEM: TIMESTEP
113
ITEM: NUMBER OF ATOMS
2
ITEM: BOX BOUNDS
-10.7281	10.7281
-10.7281	10.7281
-2.10084	2.10084
ITEM: ATOMS index type q x y z
     0	1	1	-10.2281	-10.2281	-1.54469
     1	-1	-1	-10.2281	-10.2281	-0.468622
ITEM: TIMESTEP
114
ITEM: NUMBER OF ATOMS
2
ITEM: BOX BOUNDS
-10.7281	10.7281
-10.7281	10.7281
-2.10084	2.10084
ITEM: ATOMS index type q x y z
     0	1	1	-10.2281	-10.2281	-1.54428
     1	-1	-1	-10.2281	-10.2281	-0.466702
ITEM: TIMESTEP
115
ITEM: NUMBER OF ATOMS
2
ITEM: BOX BOUNDS
-10.7281	10.7281
-10.7281	10.7281
-2.10084	2.10084
ITEM: ATOMS index type q x y z
     0	1	1	-10.2281	-10.2281	-1.54387
     1	-1	-1	-10.2281	-10.2281	-0.464778
ITEM: TIMESTEP
116
ITEM: NUMBER OF ATOMS
2
ITEM: BOX BOUNDS
-10.7281	10.7281
-10.7281	10.7281
-2.10084	2.10084
ITEM: ATOMS index type q x y z
     0	1	1	-10.2281	-10.2281	-1.54347
     1	-1	-1	-10.2281	-10.2281	-0.46285
ITEM: TIMESTEP
117
ITEM: NUMBER OF ATOMS
2
ITEM: BOX BOUNDS
-10.7281	10.7281
-10.7281	10.7281
-2.10084	2.10084
ITEM: ATOMS index type q x y z
     0	1	1	-10.2281	-10.2281	-1.54306
     1	-1	-1	-10.2281	-10.2281	-0.460918
ITEM: TIMESTEP
118
ITEM: NUMBER OF ATOMS
2
ITEM: BOX BOUNDS
-10.7281	10.7281
-10.7281	10.7281
-2.10084	2.10084
ITEM: ATOMS index type q x y z
     0	1	1	-10.2281	-10.2281	-1.54265
     1	-1	-1	-10.2281	-10.2281	-0.458983
ITEM: TIMESTEP
119
ITEM: NUMBER OF ATOMS
2
ITEM: BOX BOUNDS
-10.7281	10.7281
-10.7281	10.7281
-2.10084	2.10084
ITEM: ATOMS index type q x y z
     0	1	1	-10.2281	-10.2281	-1.54225
     1	-1	-1	-10.2281	-10.2281	-0.457045
ITEM: TIMESTEP
120
ITEM: NUMBER OF ATOMS
2
ITEM: BOX BOUNDS
-10.7281	10.7281
-10.7281	10.7281
-2.10084	2.10084
ITEM: ATOMS index type q x y z
     0	1	1	-10.2281	-10.2281	-1.54185
     1	-1	-1	-10.2281	-10.2281	-0.455104
ITEM: TIMESTEP
121
ITEM: NUMBER OF ATOMS
2
ITEM: BOX BOUNDS
-10.7281	10.7281
-10.7281	10.7281
-2.10084	2.10084
ITEM: ATOMS index type q x y z
     0	1	1	-10.2281	-10.2281	-1.54145
     1	-1	-1	-10.2281	-10.2281	-0.453159
ITEM: TIMESTEP
122
ITEM: NUMBER OF ATOMS
2
ITEM: BOX BOUNDS
-10.7281	10.7281
-10.7281	10.7281
-2.10084	2.10084
ITEM: ATOMS index type q x y z
     0	1	1	-10.2281	-10.2281	-1.54105
     1	-1	-1	-10.2281	-10.2281	-0.451212
ITEM: TIMESTEP
123
ITEM: NUMBER OF ATOMS
2
ITEM: BOX BOUNDS
-10.7281	10.7281
-10.7281	10.7281
-2.10084	2.10084
ITEM: ATOMS index type q x y z
     0	1	1	-10.2281	-10.2281	-1.54065
     1	-1	-1	-10.2281	-10.2281	-0.449262
ITEM: TIMESTEP
124
ITEM: NUMBER OF ATOMS
2
ITEM: BOX BOUNDS
-10.7281	10.7281
-10.7281	10.7281
-2.10084	2.10084
ITEM: ATOMS index type q x y z
     0	1	1	-10.2281	-10.2281	-1.54026
     1	-1	-1	-10.2281	-10.2281	-0.44731
ITEM: TIMESTEP
125
ITEM: NUMBER OF ATOMS
2
ITEM: BOX BOUNDS
-10.7281	10.7281
-10.7281	10.7281
-2.10084	2.10084
ITEM: ATOMS index type q x y z
     0	1	1	-10.2281	-10.2281	-1.53986
     1	-1	-1	-10.2281	-10.2281	-0.445355
ITEM: TIMESTEP
126
ITEM: NUMBER OF ATOMS
2
ITEM: BOX BOUNDS
-10.7281	10.7281
-10.7281	10.7281
-2.10084	2.10084
ITEM: ATOMS index type q x y z
     0	1	1	-10.2281	-10.2281	-1.53946
     1	-1	-1	-10.2281	-10.2281	-0.443398
ITEM: TIMESTEP
127
ITEM: NUMBER OF ATOMS
2
ITEM: BOX BOUNDS
-10.7281	10.7281
-10.7281	10.7281
-2.10084	2.10084
ITEM: ATOMS index type q x y z
     0	1	1	-10.2281	-10.2281	-1.53907
     1	-1	-1	-10.2281	-10.2281	-0.441439
ITEM: TIMESTEP
128
ITEM: NUMBER OF ATOMS
2
ITEM: BOX BOUNDS
-10.7281	10.7281
-10.7281	10.7281
-2.10084	2.10084
ITEM: ATOMS index type q x y z
     0	1	1	-10.2281	-10.2281	-1.53868
     1	-1	-1	-10.2281	-10.2281	-0.439478
ITEM: TIMESTEP
129
ITEM: NUMBER OF ATOMS
2
ITEM: BOX BOUNDS
-10.7281	10.7281
-10.7281	10.7281
-2.10084	2.10084
ITEM: ATOMS index type q x y z
     0	1	1	-10.2281	-10.2281	-1.53829
     1	-1	-1	-10.2281	-10.2281	-0.437515
ITEM: TIMESTEP
130
ITEM: NUMBER OF ATOMS
2
ITEM: BOX BOUNDS
-10.7281	10.7281
-10.7281	10.7281
-2.10084	2.10084
ITEM: ATOMS index type q x y z
     0	1	1	-10.2281	-10.2281	-1.53789
     1	-1	-1	-10.2281	-10.2281	-0.43555
ITEM: TIMESTEP
131
ITEM: NUMBER OF ATOMS
2
ITEM: BOX BOUNDS
-10.7281	10.7281
-10.7281	10.7281
-2.10084	2.10084
ITEM: ATOMS index type q x y z
     0	1	1	-10.2281	-10.2281	 -1.5375
     1	-1	-1	-10.2281	-10.2281	-0.433584
ITEM: TIMESTEP
132
ITEM: NUMBER OF ATOMS
2
ITEM: BOX BOUNDS
-10.7281	10.7281
-10.7281	10.7281
-2.10084	2.10084
ITEM: ATOMS index type q x y z
     0	1	1	-10.2281	-10.2281	-1.53711
     1	-1	-1	-10.2281	-10.2281	-0.431616
ITEM: TIMESTEP
133
ITEM: NUMBER OF ATOMS
2
ITEM: BOX BOUNDS
-10.7281	10.7281
-10.7281	10.7281
-2.10084	2.10084
ITEM: ATOMS index type q x y z
     0	1	1	-10.2281	-10.2281	-1.53672
     1	-1	-1	-10.2281	-10.2281	-0.429647
ITEM: TIMESTEP
134
ITEM: NUMBER OF ATOMS
2
ITEM: BOX BOUNDS
-10.7281	10.7281
-10.7281	10.7281
-2.10084	2.10084
ITEM: ATOMS index type q x y z
     0	1	1	-10.2281	-10.2281	-1.53633
     1	-1	-1	-10.2281	-10.2281	-0.427677
ITEM: TIMESTEP
135
ITEM: NUMBER OF ATOMS
2
ITEM: BOX BOUNDS
-10.7281	10.7281
-10.7281	10.7281
-2.10084	2.10084
ITEM: ATOMS index type q x y z
     0	1	1	-10.2281	-10.2281	-1.53594
     1	-1	-1	-10.2281	-10.2281	-0.425706
ITEM: TIMESTEP
136
ITEM: NUMBER OF ATOMS
2
ITEM: BOX BOUNDS