ITEM: TIMESTEP
0
ITEM: NUMBER OF ATOMS
20
ITEM: BOX BOUNDS
-10.7281	10.7281
-10.7281	10.7281
-2.10084	2.10084
ITEM: ATOMS index type q x y z
     0	1	1	-10.2281	-10.2281	-1.60083
     1	1	1	-10.2281	-10.2281	-0.60084
     2	1	1	-10.2281	-10.2281	 0.39916
     3	1	1	-10.2281	-10.2281	 1.39917
     4	1	1	-10.2281	-9.22812	-1.60083
     5	1	1	-10.2281	-9.22812	-0.60084
     6	1	1	-10.2281	-9.22812	 0.39916
     7	1	1	-10.2281	-9.22812	 1.39917
     8	1	1	-10.2281	-8.22812	-1.60083
     9	1	1	-10.2281	-8.22812	-0.600839
    10	-1	-1	-10.2281	-8.22812	0.399159
    11	-1	-1	-10.2281	-8.22812	 1.39917
    12	-1	-1	-10.2281	-7.22812	-1.60083
    13	-1	-1	-10.2281	-7.22812	-0.600841
    14	-1	-1	-10.2281	-7.22812	0.399159
    15	-1	-1	-10.2281	-7.22812	 1.39917
    16	-1	-1	-10.2281	-6.22811	-1.60083
    17	-1	-1	-10.2281	-6.22811	-0.600841
    18	-1	-1	-10.2281	-6.22811	 0.39916
    19	-1	-1	-10.2281	-6.22811	 1.39917
ITEM: TIMESTEP
1
ITEM: NUMBER OF ATOMS
20
ITEM: BOX BOUNDS
-10.7281	10.7281
-10.7281	10.7281
-2.10084	2.10084
ITEM: ATOMS index type q x y z
     0	1	1	-10.2281	-10.2282	 -1.6008
     1	1	1	-10.2281	-10.2282	-0.600841
     2	1	1	-10.2281	-10.2282	0.399161
     3	1	1	-10.2281	-10.2282	 1.39921
     4	1	1	-10.2281	-9.22812	 -1.6008
     5	1	1	-10.2281	-9.22812	-0.600839
     6	1	1	-10.2281	-9.22811	0.399162
     7	1	1	-10.2281	-9.22812	 1.39921
     8	1	1	-10.2281	-8.22811	-1.60079
     9	1	1	-10.2281	-8.22811	-0.600836
    10	-1	-1	-10.2281	-8.22813	0.399155
    11	-1	-1	-10.2281	-8.22813	 1.39921
    12	-1	-1	-10.2281	-7.22813	 -1.6008
    13	-1	-1	-10.2281	-7.22813	-0.600843
    14	-1	-1	-10.2281	-7.22813	0.399158
    15	-1	-1	-10.2281	-7.22812	 1.39921
    16	-1	-1	-10.2281	-6.22807	 -1.6008
    17	-1	-1	-10.2281	-6.22807	-0.600842
    18	-1	-1	-10.2281	-6.22807	 0.39916
    19	-1	-1	-10.2281	-6.22807	 1.39921
ITEM: TIMESTEP
2
ITEM: NUMBER OF ATOMS
20
ITEM: BOX BOUNDS
-10.7281	10.7281
-10.7281	10.7281
-2.10084	2.10084
ITEM: ATOMS index type q x y z
     0	1	1	-10.2281	-10.2282	-1.60074
     1	1	1	-10.2281	-10.2282	-0.600841
     2	1	1	-10.2281	-10.2282	0.399163
     3	1	1	-10.2281	-10.2282	 1.39928
     4	1	1	-10.2281	-9.22812	-1.60074
     5	1	1	-10.2281	-9.22811	-0.600838
     6	1	1	-10.2281	-9.22811	0.399165
     7	1	1	-10.2281	-9.22811	 1.39927
     8	1	1	-10.2281	 -8.2281	-1.60074
     9	1	1	-10.2281	 -8.2281	-0.60083
    10	-1	-1	-10.2281	-8.22814	 0.39915
    11	-1	-1	-10.2281	-8.22814	 1.39927
    12	-1	-1	-10.2281	-7.22814	-1.60074
    13	-1	-1	-10.2281	-7.22814	-0.600846
    14	-1	-1	-10.2281	-7.22813	0.399157
    15	-1	-1	-10.2281	-7.22813	 1.39928
    16	-1	-1	-10.2281	-6.22801	-1.60074
    17	-1	-1	-10.2281	-6.22801	-0.600843
    18	-1	-1	-10.2281	-6.22801	 0.39916
    19	-1	-1	-10.2281	-6.22801	 1.39928
ITEM: TIMESTEP
3
ITEM: NUMBER OF ATOMS
20
ITEM: BOX BOUNDS
-10.7281	10.7281
-10.7281	10.7281
-2.10084	2.10084
ITEM: ATOMS index type q x y z
     0	1	1	-10.2281	-10.2283	-1.60066
     1	1	1	-10.2281	-10.2283	-0.600841
     2	1	1	-10.2281	-10.2283	0.399165
     3	1	1	-10.2281	-10.2283	 1.39937
     4	1	1	-10.2281	-9.22811	-1.60066
     5	1	1	-10.2281	-9.22811	-0.600835
     6	1	1	-10.2281	-9.22809	0.399169
     7	1	1	-10.2281	-9.22809	 1.39936
     8	1	1	-10.2281	-8.22809	-1.60065
     9	1	1	-10.2281	-8.22808	-0.600822
    10	-1	-1	-10.2281	-8.22816	0.399142
    11	-1	-1	-10.2281	-8.22815	 1.39936
    12	-1	-1	-10.2281	-7.22815	-1.60066
    13	-1	-1	-10.2281	-7.22815	-0.60085
    14	-1	-1	-10.2281	-7.22814	0.399155
    15	-1	-1	-10.2281	-7.22813	 1.39937
    16	-1	-1	-10.2281	-6.22793	-1.60066
    17	-1	-1	-10.2281	-6.22792	-0.600845
    18	-1	-1	-10.2281	-6.22792	 0.39916
    19	-1	-1	-10.2281	-6.22792	 1.39937
ITEM: TIMESTEP
4
ITEM: NUMBER OF ATOMS
20
ITEM: BOX BOUNDS
-10.7281	10.7281
-10.7281	10.7281
-2.10084	2.10084
ITEM: ATOMS index type q x y z
     0	1	1	-10.2281	-10.2284	-1.60056
     1	1	1	-10.2281	-10.2284	-0.600841
     2	1	1	-10.2281	-10.2284	0.399168
     3	1	1	-10.2281	-10.2284	 1.39948
     4	1	1	-10.2281	-9.22811	-1.60056
     5	1	1	-10.2281	 -9.2281	-0.600833
     6	1	1	-10.2281	-9.22808	0.399175
     7	1	1	-10.2281	-9.22808	 1.39948
     8	1	1	-10.2281	-8.22807	-1.60055
     9	1	1	-10.2281	-8.22806	-0.600812
    10	-1	-1	-10.2281	-8.22818	0.399132
    11	-1	-1	-10.2281	-8.22817	 1.39947
    12	-1	-1	-10.2281	-7.22817	-1.60056
    13	-1	-1	-10.2281	-7.22817	-0.600855
    14	-1	-1	-10.2281	-7.22815	0.399152
    15	-1	-1	-10.2281	-7.22814	 1.39948
    16	-1	-1	-10.2281	-6.22781	-1.60057
    17	-1	-1	-10.2281	-6.22781	-0.600848
    18	-1	-1	-10.2281	-6.22781	0.399161
    19	-1	-1	-10.2281	-6.22781	 1.39948
ITEM: TIMESTEP
5
ITEM: NUMBER OF ATOMS
20
ITEM: BOX BOUNDS
-10.7281	10.7281
-10.7281	10.7281
-2.10084	2.10084
ITEM: ATOMS index type q x y z
     0	1	1	-10.2281	-10.2286	-1.60044
     1	1	1	-10.2281	-10.2286	-0.600841
     2	1	1	-10.2281	-10.2286	0.399172
     3	1	1	-10.2281	-10.2286	 1.39963
     4	1	1	-10.2281	 -9.2281	-1.60044
     5	1	1	-10.2281	-9.22809	-0.600829
     6	1	1	-10.2281	-9.22806	0.399182
     7	1	1	-10.2281	-9.22806	 1.39962
     8	1	1	-10.2281	-8.22805	-1.60042
     9	1	1	-10.2281	-8.22803	-0.600799
    10	-1	-1	-10.2281	-8.22821	 0.39912
    11	-1	-1	-10.2281	 -8.2282	  1.3996
    12	-1	-1	-10.2281	-7.22819	-1.60044
    13	-1	-1	-10.2281	-7.22819	-0.600861
    14	-1	-1	-10.2281	-7.22816	 0.39915
    15	-1	-1	-10.2281	-7.22814	 1.39962
    16	-1	-1	-10.2281	-6.22768	-1.60044
    17	-1	-1	-10.2281	-6.22767	-0.600851
    18	-1	-1	-10.2281	-6.22767	0.399162
    19	-1	-1	-10.2281	-6.22767	 1.39962
ITEM: TIMESTEP
6
ITEM: NUMBER OF ATOMS
20
ITEM: BOX BOUNDS
-10.7281	10.7281
-10.7281	10.7281
-2.10084	2.10084
ITEM: ATOMS index type q x y z
     0	1	1	-10.2281	-10.2287	 -1.6003
     1	1	1	-10.2281	-10.2287	-0.600841
     2	1	1	-10.2281	-10.2287	0.399176
     3	1	1	-10.2281	-10.2287	 1.39979
     4	1	1	-10.2281	 -9.2281	 -1.6003
     5	1	1	-10.2281	-9.22808	-0.600825
     6	1	1	-10.2281	-9.22803	 0.39919
     7	1	1	-10.2281	-9.22804	 1.39979
     8	1	1	-10.2281	-8.22802	-1.60027
     9	1	1	-10.2281	  -8.228	-0.600784
    10	-1	-1	-10.2281	-8.22824	0.399106
    11	-1	-1	-10.2281	-8.22822	 1.39976
    12	-1	-1	-10.2281	-7.22821	 -1.6003
    13	-1	-1	-10.2281	-7.22821	-0.600868
    14	-1	-1	-10.2281	-7.22817	0.399146
    15	-1	-1	-10.2281	-7.22815	 1.39979
    16	-1	-1	-10.2281	-6.22752	 -1.6003
    17	-1	-1	-10.2281	-6.22751	-0.600855
    18	-1	-1	-10.2281	 -6.2275	0.399163
    19	-1	-1	-10.2281	 -6.2275	 1.39979
ITEM: TIMESTEP
7
ITEM: NUMBER OF ATOMS
20
ITEM: BOX BOUNDS
-10.7281	10.7281
-10.7281	10.7281
-2.10084	2.10084
ITEM: ATOMS index type q x y z
     0	1	1	-10.2281	-10.2289	-1.60014
     1	1	1	-10.2281	-10.2289	-0.600841
     2	1	1	-10.2281	-10.2289	0.399182
     3	1	1	-10.2281	-10.2289	 1.39999
     4	1	1	-10.2281	-9.22809	-1.60013
     5	1	1	-10.2281	-9.22806	-0.60082
     6	1	1	-10.2281	  -9.228	  0.3992
     7	1	1	-10.2281	-9.22801	 1.39998
     8	1	1	-10.2281	-8.22799	 -1.6001
     9	1	1	-10.2281	-8.22796	-0.600767
    10	-1	-1	-10.2281	-8.22828	 0.39909
    11	-1	-1	-10.2281	-8.22825	 1.39995
    12	-1	-1	-10.2281	-7.22823	-1.60013
    13	-1	-1	-10.2281	-7.22824	-0.600877
    14	-1	-1	-10.2281	-7.22818	0.399143
    15	-1	-1	-10.2281	-7.22816	 1.39998
    16	-1	-1	-10.2281	-6.22733	-1.60014
    17	-1	-1	-10.2281	-6.22732	-0.600859
    18	-1	-1	-10.2281	-6.22731	0.399164
    19	-1	-1	-10.2281	-6.22732	 1.39998
ITEM: TIMESTEP
8
ITEM: NUMBER OF ATOMS
20
ITEM: BOX BOUNDS
-10.7281	10.7281
-10.7281	10.7281
-2.10084	2.10084
ITEM: ATOMS index type q x y z
     0	1	1	-10.2281	-10.2291	-1.59995
     1	1	1	-10.2281	-10.2291	-0.600841
     2	1	1	-10.2281	-10.2291	0.399189
     3	1	1	-10.2281	-10.2291	 1.40021
     4	1	1	-10.2281	-9.22808	-1.59995
     5	1	1	-10.2281	-9.22805	-0.600813
     6	1	1	-10.2281	-9.22797	0.399211
     7	1	1	-10.2281	-9.22798	 1.40019
     8	1	1	-10.2281	-8.22796	-1.59991
     9	1	1	-10.2281	-8.22792	-0.600747
    10	-1	-1	-10.2281	-8.22832	0.399072
    11	-1	-1	-10.2281	-8.22829	 1.40015
    12	-1	-1	-10.2281	-7.22826	-1.59994
    13	-1	-1	-10.2281	-7.22827	-0.600886
    14	-1	-1	-10.2281	 -7.2282	0.399139
    15	-1	-1	-10.2281	-7.22816	  1.4002
    16	-1	-1	-10.2281	-6.22713	-1.59996
    17	-1	-1	-10.2281	-6.22711	-0.600863
    18	-1	-1	-10.2281	 -6.2271	0.399166
    19	-1	-1	-10.2281	 -6.2271	  1.4002
ITEM: TIMESTEP
9
ITEM: NUMBER OF ATOMS
20
ITEM: BOX BOUNDS
-10.7281	10.7281
-10.7281	10.7281
-2.10084	2.10084
ITEM: ATOMS index type q x y z
     0	1	1	-10.2281	-10.2294	-1.59975
     1	1	1	-10.2281	-10.2294	-0.60084
     2	1	1	-10.2281	-10.2294	0.399196
     3	1	1	-10.2281	-10.2294	 1.40045
     4	1	1	-10.2281	-9.22807	-1.59975
     5	1	1	-10.2281	-9.22803	-0.600806
     6	1	1	-10.2281	-9.22794	0.399224
     7	1	1	-10.2281	-9.22795	 1.40043
     8	1	1	-10.2281	-8.22792	-1.59969
     9	1	1	-10.2281	-8.22787	-0.600724
    10	-1	-1	-10.2281	-8.22837	0.399052
    11	-1	-1	-10.2281	-8.22832	 1.40039
    12	-1	-1	-10.2281	-7.22829	-1.59974
    13	-1	-1	-10.2281	 -7.2283	-0.600896
    14	-1	-1	-10.2281	-7.22822	0.399135
    15	-1	-1	-10.2281	-7.22817	 1.40044
    16	-1	-1	-10.2281	-6.22689	-1.59975
    17	-1	-1	-10.2281	-6.22687	-0.600868
    18	-1	-1	-10.2281	-6.22686	0.399169
    19	-1	-1	-10.2281	-6.22686	 1.40044
ITEM: TIMESTEP
10
ITEM: NUMBER OF ATOMS
20
ITEM: BOX BOUNDS
-10.7281	10.7281
-10.7281	10.7281
-2.10084	2.10084
ITEM: ATOMS index type q x y z
     0	1	1	-10.2281	-10.2296	-1.59952
     1	1	1	-10.2281	-10.2297	-0.600839
     2	1	1	-10.2281	-10.2296	0.399205
     3	1	1	-10.2281	-10.2296	 1.40072
     4	1	1	-10.2281	-9.22806	-1.59952
     5	1	1	-10.2281	-9.22801	-0.600798
     6	1	1	-10.2281	 -9.2279	0.399239
     7	1	1	-10.2281	-9.22792	  1.4007
     8	1	1	-10.2281	-8.22788	-1.59946
     9	1	1	-10.2281	-8.22782	-0.600699
    10	-1	-1	-10.2281	-8.22842	0.399031
    11	-1	-1	-10.2281	-8.22837	 1.40064
    12	-1	-1	-10.2281	-7.22833	-1.59951
    13	-1	-1	-10.2281	-7.22834	-0.600906
    14	-1	-1	-10.2281	-7.22823	0.399131
    15	-1	-1	-10.2281	-7.22818	 1.40071
    16	-1	-1	-10.2281	-6.22664	-1.59953
    17	-1	-1	-10.2281	-6.22661	-0.600873
    18	-1	-1	-10.2281	-6.22659	0.399172
    19	-1	-1	-10.2281	 -6.2266	 1.40071
ITEM: TIMESTEP
11
ITEM: NUMBER OF ATOMS
20
ITEM: BOX BOUNDS
-10.7281	10.7281
-10.7281	10.7281
-2.10084	2.10084
ITEM: ATOMS index type q x y z
     0	1	1	-10.2281	-10.2299	-1.59928
     1	1	1	-10.2281	-10.2299	-0.600838
     2	1	1	-10.2281	-10.2299	0.399215
     3	1	1	-10.2281	-10.2299	 1.40102
     4	1	1	-10.2281	-9.22805	-1.59928
     5	1	1	-10.2281	-9.22799	-0.600789
     6	1	1	-10.2281	-9.22787	0.399255
     7	1	1	-10.2281	-9.22788	 1.40099
     8	1	1	-10.2281	-8.22783	 -1.5992
     9	1	1	-10.2281	-8.22777	-0.600671
    10	-1	-1	-10.2281	-8.22848	0.399009
    11	-1	-1	-10.2281	-8.22841	 1.40093
    12	-1	-1	-10.2281	-7.22837	-1.59927
    13	-1	-1	-10.2281	-7.22838	-0.600917
    14	-1	-1	-10.2281	-7.22825	0.399127
    15	-1	-1	-10.2281	-7.22819	   1.401
    16	-1	-1	-10.2281	-6.22635	-1.59929
    17	-1	-1	-10.2281	-6.22633	-0.600877
    18	-1	-1	-10.2281	 -6.2263	0.399176
    19	-1	-1	-10.2281	-6.22631	 1.40101
ITEM: TIMESTEP
12
ITEM: NUMBER OF ATOMS
20
ITEM: BOX BOUNDS
-10.7281	10.7281
-10.7281	10.7281
-2.10084	2.10084
ITEM: ATOMS index type q x y z
     0	1	1	-10.2281	-10.2302	-1.59902
     1	1	1	-10.2281	-10.2303	-0.600835
     2	1	1	-10.2281	-10.2302	0.399227
     3	1	1	-10.2281	-10.2302	 1.40134
     4	1	1	-10.2281	-9.22804	-1.59901
     5	1	1	-10.2281	-9.22797	-0.600778
     6	1	1	-10.2281	-9.22782	0.399274
     7	1	1	-10.2281	-9.22784	 1.40131
     8	1	1	-10.2281	-8.22778	-1.59892
     9	1	1	-10.2281	-8.22771	-0.60064
    10	-1	-1	-10.2281	-8.22854	0.398985
    11	-1	-1	-10.2281	-8.22846	 1.40123
    12	-1	-1	-10.2281	-7.22841	  -1.599
    13	-1	-1	-10.2281	-7.22842	-0.600928
    14	-1	-1	-10.2281	-7.22827	0.399123
    15	-1	-1	-10.2281	 -7.2282	 1.40132
    16	-1	-1	-10.2281	-6.22605	-1.59903
    17	-1	-1	-10.2281	-6.22602	-0.600882
    18	-1	-1	-10.2281	-6.22599	 0.39918
    19	-1	-1	-10.2281	  -6.226	 1.40132
ITEM: TIMESTEP
13
ITEM: NUMBER OF ATOMS
20
ITEM: BOX BOUNDS
-10.7281	10.7281
-10.7281	10.7281
-2.10084	2.10084
ITEM: ATOMS index type q x y z
     0	1	1	-10.2281	-10.2306	-1.59873
     1	1	1	-10.2281	-10.2306	-0.600832
     2	1	1	-10.2281	-10.2306	 0.39924
     3	1	1	-10.2281	-10.2305	 1.40168
     4	1	1	-10.2281	-9.22803	-1.59873
     5	1	1	-10.2281	-9.22795	-0.600766
     6	1	1	-10.2281	-9.22778	0.399294
     7	1	1	-10.2281	 -9.2278	 1.40165
     8	1	1	-10.2281	-8.22773	-1.59863
     9	1	1	-10.2281	-8.22764	-0.600606
    10	-1	-1	-10.2281	 -8.2286	 0.39896
    11	-1	-1	-10.2281	-8.22851	 1.40156
    12	-1	-1	-10.2281	-7.22845	-1.59872
    13	-1	-1	-10.2281	-7.22847	-0.60094
    14	-1	-1	-10.2281	 -7.2283	 0.39912
    15	-1	-1	-10.2281	-7.22821	 1.40166
    16	-1	-1	-10.2281	-6.22572	-1.59875
    17	-1	-1	-10.2281	-6.22568	-0.600886
    18	-1	-1	-10.2281	-6.22565	0.399186
    19	-1	-1	-10.2281	-6.22566	 1.40167
ITEM: TIMESTEP
14
ITEM: NUMBER OF ATOMS
20
ITEM: BOX BOUNDS
-10.7281	10.7281
-10.7281	10.7281
-2.10084	2.10084
ITEM: ATOMS index type q x y z
     0	1	1	-10.2281	-10.2309	-1.59843
     1	1	1	-10.2281	 -10.231	-0.600828
     2	1	1	-10.2281	-10.2309	0.399255
     3	1	1	-10.2281	-10.2309	 1.40205
     4	1	1	-10.2281	-9.22802	-1.59843
     5	1	1	-10.2281	-9.22793	-0.600752
     6	1	1	-10.2281	-9.22773	0.399317
     7	1	1	-10.2281	-9.22775	 1.40202
     8	1	1	-10.2281	-8.22767	-1.59831
     9	1	1	-10.2281	-8.22757	-0.60057
    10	-1	-1	-10.2281	-8.22867	0.398934
    11	-1	-1	-10.2281	-8.22857	 1.40191
    12	-1	-1	-10.2281	-7.22849	-1.59842
    13	-1	-1	-10.2281	-7.22851	-0.600952
    14	-1	-1	-10.2281	-7.22832	0.399117
    15	-1	-1	-10.2281	-7.22823	 1.40203
    16	-1	-1	-10.2281	-6.22537	-1.59845
    17	-1	-1	-10.2281	-6.22533	-0.60089
    18	-1	-1	-10.2281	-6.22529	0.399193
    19	-1	-1	-10.2281	 -6.2253	 1.40204
ITEM: TIMESTEP
15
ITEM: NUMBER OF ATOMS
20
ITEM: BOX BOUNDS
-10.7281	10.7281
-10.7281	10.7281
-2.10084	2.10084
ITEM: ATOMS index type q x y z
     0	1	1	-10.2281	-10.2313	-1.59812
     1	1	1	-10.2281	-10.2313	-0.600823
     2	1	1	-10.2281	-10.2313	0.399272
     3	1	1	-10.2281	-10.2313	 1.40245
     4	1	1	-10.2281	-9.22801	-1.59811
     5	1	1	-10.2281	 -9.2279	-0.600736
     6	1	1	-10.2281	-9.22768	0.399342
     7	1	1	-10.2281	-9.22771	 1.40241
     8	1	1	-10.2281	-8.22761	-1.59798
     9	1	1	-10.2281	 -8.2275	-0.60053
    10	-1	-1	-10.2281	-8.22875	0.398908
    11	-1	-1	-10.2281	-8.22863	 1.40229
    12	-1	-1	-10.2281	-7.22854	 -1.5981
    13	-1	-1	-10.2281	-7.22856	-0.600964
    14	-1	-1	-10.2281	-7.22834	0.399115
    15	-1	-1	-10.2281	-7.22824	 1.40243
    16	-1	-1	-10.2281	-6.22499	-1.59814
    17	-1	-1	-10.2281	-6.22494	-0.600893
    18	-1	-1	-10.2281	 -6.2249	0.399202
    19	-1	-1	-10.2281	-6.22491	 1.40243
ITEM: TIMESTEP
16
ITEM: NUMBER OF ATOMS
20
ITEM: BOX BOUNDS
-10.7281	10.7281
-10.7281	10.7281
-2.10084	2.10084
ITEM: ATOMS index type q x y z
     0	1	1	-10.2281	-10.2317	-1.59779
     1	1	1	-10.2281	-10.2318	-0.600817
     2	1	1	-10.2281	-10.2317	0.399291
     3	1	1	-10.2281	-10.2317	 1.40287
     4	1	1	-10.2281	  -9.228	-1.59778
     5	1	1	-10.2281	-9.22788	-0.600719
     6	1	1	-10.2281	-9.22763	 0.39937
     7	1	1	-10.2281	-9.22766	 1.40283
     8	1	1	-10.2281	-8.22755	-1.59763
     9	1	1	-10.2281	-8.22742	-0.600487
    10	-1	-1	-10.2281	-8.22883	0.398881
    11	-1	-1	-10.2281	 -8.2287	 1.40269
    12	-1	-1	-10.2281	-7.22858	-1.59776
    13	-1	-1	-10.2281	-7.22861	-0.600975
    14	-1	-1	-10.2281	-7.22837	0.399113
    15	-1	-1	-10.2281	-7.22825	 1.40284
    16	-1	-1	-10.2281	-6.22459	-1.59781
    17	-1	-1	-10.2281	-6.22454	-0.600896
    18	-1	-1	-10.2281	-6.22449	0.399211
    19	-1	-1	-10.2281	 -6.2245	 1.40285
ITEM: TIMESTEP
17
ITEM: NUMBER OF ATOMS
20
ITEM: BOX BOUNDS
-10.7281	10.7281
-10.7281	10.7281
-2.10084	2.10084
ITEM: ATOMS index type q x y z
     0	1	1	-10.2281	-10.2322	-1.59744
     1	1	1	-10.2281	-10.2322	-0.600809
     2	1	1	-10.2281	-10.2321	0.399312
     3	1	1	-10.2281	-10.2321	 1.40332
     4	1	1	-10.2281	-9.22799	-1.59743
     5	1	1	-10.2281	-9.22785	-0.600699
     6	1	1	-10.2281	-9.22758	0.399401
     7	1	1	-10.2281	-9.22761	 1.40327
     8	1	1	-10.2281	-8.22748	-1.59726
     9	1	1	-10.2281	-8.22733	-0.60044
    10	-1	-1	-10.2281	-8.22891	0.398853
    11	-1	-1	-10.2281	-8.22876	 1.40311
    12	-1	-1	-10.2281	-7.22863	-1.59741
    13	-1	-1	-10.2281	-7.22866	-0.600987
    14	-1	-1	-10.2281	-7.22839	0.399113
    15	-1	-1	-10.2281	-7.22826	 1.40329
    16	-1	-1	-10.2281	-6.22417	-1.59746
    17	-1	-1	-10.2281	-6.22411	-0.600898
    18	-1	-1	-10.2281	-6.22405	0.399223
    19	-1	-1	-10.2281	-6.22407	 1.40329
ITEM: TIMESTEP
18
ITEM: NUMBER OF ATOMS
20
ITEM: BOX BOUNDS
-10.7281	10.7281
-10.7281	10.7281
-2.10084	2.10084
ITEM: ATOMS index type q x y z
     0	1	1	-10.2281	-10.2326	-1.59707
     1	1	1	-10.2281	-10.2327	 -0.6008
     2	1	1	-10.2281	-10.2326	0.399335
     3	1	1	-10.2281	-10.2325	 1.40379
     4	1	1	-10.2281	-9.22798	-1.59706
     5	1	1	-10.2281	-9.22783	-0.600678
     6	1	1	-10.2281	-9.22753	0.399434
     7	1	1	-10.2281	-9.22756	 1.40373
     8	1	1	-10.2281	-8.22741	-1.59688
     9	1	1	-10.2281	-8.22725	-0.60039
    10	-1	-1	-10.2281	  -8.229	0.398826
    11	-1	-1	-10.2281	-8.22883	 1.40356
    12	-1	-1	-10.2281	-7.22868	-1.59704
    13	-1	-1	-10.2281	-7.22871	-0.600998
    14	-1	-1	-10.2281	-7.22842	0.399114
    15	-1	-1	-10.2281	-7.22827	 1.40375
    16	-1	-1	-10.2281	-6.22372	 -1.5971
    17	-1	-1	-10.2281	-6.22365	-0.600899
    18	-1	-1	-10.2281	-6.22359	0.399236
    19	-1	-1	-10.2281	-6.22361	 1.40376
ITEM: TIMESTEP
19
ITEM: NUMBER OF ATOMS
20
ITEM: BOX BOUNDS
-10.7281	10.7281
-10.7281	10.7281
-2.10084	2.10084
ITEM: ATOMS index type q x y z
     0	1	1	-10.2281	-10.2331	-1.59669
     1	1	1	-10.2281	-10.2331	-0.600789
     2	1	1	-10.2281	-10.2331	0.399361
     3	1	1	-10.2281	 -10.233	 1.40428
     4	1	1	-10.2281	-9.22797	-1.59669
     5	1	1	-10.2281	 -9.2278	-0.600654
     6	1	1	-10.2281	-9.22748	0.399471
     7	1	1	-10.2281	-9.22751	 1.40422
     8	1	1	-10.2281	-8.22734	-1.59648
     9	1	1	-10.2281	-8.22715	-0.600336
    10	-1	-1	-10.2281	-8.22909	0.398799
    11	-1	-1	-10.2281	-8.22891	 1.40403
    12	-1	-1	-10.2281	-7.22873	-1.59666
    13	-1	-1	-10.2281	-7.22877	-0.601008
    14	-1	-1	-10.2281	-7.22844	0.399116
    15	-1	-1	-10.2281	-7.22828	 1.40424
    16	-1	-1	-10.2281	-6.22325	-1.59672
    17	-1	-1	-10.2281	-6.22318	-0.600898
    18	-1	-1	-10.2281	-6.22311	0.399252
    19	-1	-1	-10.2281	-6.22313	 1.40425
ITEM: TIMESTEP
20
ITEM: NUMBER OF ATOMS
20
ITEM: BOX BOUNDS
-10.7281	10.7281
-10.7281	10.7281
-2.10084	2.10084
ITEM: ATOMS index type q x y z
     0	1	1	-10.2281	-10.2336	 -1.5963
     1	1	1	-10.2281	-10.2336	-0.600776
     2	1	1	-10.2281	-10.2336	 0.39939
     3	1	1	-10.2281	-10.2335	  1.4048
     4	1	1	-10.2281	-9.22796	-1.59629
     5	1	1	-10.2281	-9.22778	-0.600627
     6	1	1	-10.2281	-9.22742	 0.39951
     7	1	1	-10.2281	-9.22746	 1.40473
     8	1	1	-10.2281	-8.22726	-1.59607
     9	1	1	-10.2281	-8.22706	-0.600279
    10	-1	-1	-10.2281	-8.22919	0.398772
    11	-1	-1	-10.2281	-8.22898	 1.40452
    12	-1	-1	-10.2281	-7.22879	-1.59627
    13	-1	-1	-10.2281	-7.22882	-0.601017
    14	-1	-1	-10.2281	-7.22847	 0.39912
    15	-1	-1	-10.2281	-7.22828	 1.40476
    16	-1	-1	-10.2281	-6.22276	-1.59633
    17	-1	-1	-10.2281	-6.22268	-0.600896
    18	-1	-1	-10.2281	 -6.2226	0.399269
    19	-1	-1	-10.2281	-6.22262	 1.40477
ITEM: TIMESTEP
21
ITEM: NUMBER OF ATOMS
20
ITEM: BOX BOUNDS
-10.7281	10.7281
-10.7281	10.7281
-2.10084	2.10084
ITEM: ATOMS index type q x y z
     0	1	1	-10.2281	-10.2342	 -1.5959
     1	1	1	-10.2281	-10.2342	-0.600761
     2	1	1	-10.2281	-10.2341	0.399422
     3	1	1	-10.2281	 -10.234	 1.40534
     4	1	1	-10.2281	-9.22795	-1.59589
     5	1	1	-10.2281	-9.22775	-0.600598
     6	1	1	-10.2281	-9.22737	0.399554
     7	1	1	-10.2281	-9.22741	 1.40527
     8	1	1	-10.2281	-8.22718	-1.59564
     9	1	1	-10.2281	-8.22696	-0.600218
    10	-1	-1	-10.2281	-8.22928	0.398745
    11	-1	-1	-10.2281	-8.22906	 1.40503
    12	-1	-1	-10.2281	-7.22884	-1.59586
    13	-1	-1	-10.2281	-7.22888	-0.601025
    14	-1	-1	-10.2281	-7.22849	0.399126
    15	-1	-1	-10.2281	-7.22829	  1.4053
    16	-1	-1	-10.2281	-6.22225	-1.59593
    17	-1	-1	-10.2281	-6.22216	-0.600893
    18	-1	-1	-10.2281	-6.22207	0.399289
    19	-1	-1	-10.2281	-6.22209	 1.40531
ITEM: TIMESTEP
22
ITEM: NUMBER OF ATOMS
20
ITEM: BOX BOUNDS
-10.7281	10.7281
-10.7281	10.7281
-2.10084	2.10084
ITEM: ATOMS index type q x y z
     0	1	1	-10.2281	-10.2347	-1.59548
     1	1	1	-10.2281	-10.2347	-0.600743
     2	1	1	-10.2281	-10.2346	0.399456
     3	1	1	-10.2281	-10.2345	 1.40591
     4	1	1	-10.2281	-9.22795	-1.59547
     5	1	1	-10.2281	-9.22773	-0.600566
     6	1	1	-10.2281	-9.22731	0.399601
     7	1	1	-10.2281	-9.22736	 1.40583
     8	1	1	-10.2281	 -8.2271	 -1.5952
     9	1	1	-10.2281	-8.22686	-0.600152
    10	-1	-1	-10.2281	-8.22939	 0.39872
    11	-1	-1	-10.2281	-8.22915	 1.40557
    12	-1	-1	-10.2281	-7.22889	-1.59544
    13	-1	-1	-10.2281	-7.22893	-0.601032
    14	-1	-1	-10.2281	-7.22852	0.399134
    15	-1	-1	-10.2281	 -7.2283	 1.40586
    16	-1	-1	-10.2281	-6.22171	-1.59552
    17	-1	-1	-10.2281	-6.22161	-0.600888
    18	-1	-1	-10.2281	-6.22152	0.399312
    19	-1	-1	-10.2281	-6.22154	 1.40587
ITEM: TIMESTEP
23
ITEM: NUMBER OF ATOMS
20
ITEM: BOX BOUNDS
-10.7281	10.7281
-10.7281	10.7281
-2.10084	2.10084
ITEM: ATOMS index type q x y z
     0	1	1	-10.2281	-10.2353	-1.59505
     1	1	1	-10.2281	-10.2353	-0.600723
     2	1	1	-10.2281	-10.2352	0.399495
     3	1	1	-10.2281	-10.2351	  1.4065
     4	1	1	-10.2281	-9.22794	-1.59504
     5	1	1	-10.2281	-9.22771	-0.60053
     6	1	1	-10.2281	-9.22726	0.399652
     7	1	1	-10.2281	 -9.2273	 1.40641
     8	1	1	-10.2281	-8.22701	-1.59475
     9	1	1	-10.2281	-8.22675	-0.600083
    10	-1	-1	-10.2281	 -8.2295	0.398695
    11	-1	-1	-10.2281	-8.22923	 1.40613
    12	-1	-1	-10.2281	-7.22894	-1.59501
    13	-1	-1	-10.2281	-7.22899	-0.601037
    14	-1	-1	-10.2281	-7.22854	0.399144
    15	-1	-1	-10.2281	 -7.2283	 1.40644
    16	-1	-1	-10.2281	-6.22115	-1.59509
    17	-1	-1	-10.2281	-6.22104	-0.60088
    18	-1	-1	-10.2281	-6.22094	0.399338
    19	-1	-1	-10.2281	-6.22097	 1.40646
ITEM: TIMESTEP
24
ITEM: NUMBER OF ATOMS
20
ITEM: BOX BOUNDS
-10.7281	10.7281
-10.7281	10.7281
-2.10084	2.10084
ITEM: ATOMS index type q x y z
     0	1	1	-10.2281	-10.2359	-1.59461
     1	1	1	-10.2281	-10.2359	-0.600701
     2	1	1	-10.2281	-10.2358	0.399537
     3	1	1	-10.2281	-10.2357	 1.40712
     4	1	1	-10.2281	-9.22794	 -1.5946
     5	1	1	-10.2281	-9.22768	-0.600491
     6	1	1	-10.2281	-9.22721	0.399707
     7	1	1	-10.2281	-9.22725	 1.40702
     8	1	1	-10.2281	-8.22692	-1.59428
     9	1	1	-10.2281	-8.22664	-0.600009
    10	-1	-1	-10.2281	-8.22961	0.398672
    11	-1	-1	-10.2281	-8.22932	 1.40671
    12	-1	-1	-10.2281	-7.22899	-1.59457
    13	-1	-1	-10.2281	-7.22904	-0.601041
    14	-1	-1	-10.2281	-7.22856	0.399157
    15	-1	-1	-10.2281	 -7.2283	 1.40705
    16	-1	-1	-10.2281	-6.22057	-1.59466
    17	-1	-1	-10.2281	-6.22045	-0.600871
    18	-1	-1	-10.2281	-6.22034	0.399366
    19	-1	-1	-10.2281	-6.22037	 1.40707
ITEM: TIMESTEP
25
ITEM: NUMBER OF ATOMS
20
ITEM: BOX BOUNDS
-10.7281	10.7281
-10.7281	10.7281
-2.10084	2.10084
ITEM: ATOMS index type q x y z
     0	1	1	-10.2281	-10.2365	-1.59416
     1	1	1	-10.2281	-10.2365	-0.600675
     2	1	1	-10.2281	-10.2364	0.399582
     3	1	1	-10.2281	-10.2363	 1.40776
     4	1	1	-10.2281	-9.22794	-1.59415
     5	1	1	-10.2281	-9.22766	-0.600449
     6	1	1	-10.2281	-9.22715	0.399767
     7	1	1	-10.2281	 -9.2272	 1.40765
     8	1	1	-10.2281	-8.22683	-1.59381
     9	1	1	-10.2281	-8.22652	-0.59993
    10	-1	-1	-10.2281	-8.22972	0.398651
    11	-1	-1	-10.2281	-8.22942	 1.40731
    12	-1	-1	-10.2281	-7.22904	-1.59412
    13	-1	-1	-10.2281	-7.22909	-0.601042
    14	-1	-1	-10.2281	-7.22858	0.399172
    15	-1	-1	-10.2281	-7.22831	 1.40769
    16	-1	-1	-10.2281	-6.21996	-1.59421
    17	-1	-1	-10.2281	-6.21984	-0.600859
    18	-1	-1	-10.2281	-6.21972	0.399398
    19	-1	-1	-10.2281	-6.21975	  1.4077
ITEM: TIMESTEP
26
ITEM: NUMBER OF ATOMS
20
ITEM: BOX BOUNDS
-10.7281	10.7281
-10.7281	10.7281
-2.10084	2.10084
ITEM: ATOMS index type q x y z
     0	1	1	-10.2281	-10.2371	-1.59371
     1	1	1	-10.2281	-10.2372	-0.600646
     2	1	1	-10.2281	 -10.237	0.399632
     3	1	1	-10.2281	-10.2369	 1.40842
     4	1	1	-10.2281	-9.22794	-1.59369
     5	1	1	-10.2281	-9.22764	-0.600403
     6	1	1	-10.2281	 -9.2271	0.399831
     7	1	1	-10.2281	-9.22716	 1.40831
     8	1	1	-10.2281	-8.22673	-1.59332
     9	1	1	-10.2281	 -8.2264	-0.599847
    10	-1	-1	-10.2281	-8.22984	0.398632
    11	-1	-1	-10.2281	-8.22951	 1.40794
    12	-1	-1	-10.2281	-7.22909	-1.59366
    13	-1	-1	-10.2281	-7.22914	-0.601041
    14	-1	-1	-10.2281	 -7.2286	 0.39919
    15	-1	-1	-10.2281	 -7.2283	 1.40834
    16	-1	-1	-10.2281	-6.21934	-1.59376
    17	-1	-1	-10.2281	 -6.2192	-0.600844
    18	-1	-1	-10.2281	-6.21907	0.399434
    19	-1	-1	-10.2281	 -6.2191	 1.40836
ITEM: TIMESTEP
27
ITEM: NUMBER OF ATOMS
20
ITEM: BOX BOUNDS
-10.7281	10.7281
-10.7281	10.7281
-2.10084	2.10084
ITEM: ATOMS index type q x y z
     0	1	1	-10.2281	-10.2378	-1.59324
     1	1	1	-10.2281	-10.2378	-0.600614
     2	1	1	-10.2281	-10.2377	0.399687
     3	1	1	-10.2281	-10.2376	  1.4091
     4	1	1	-10.2281	-9.22794	-1.59322
     5	1	1	-10.2281	-9.22762	-0.600353
     6	1	1	-10.2281	-9.22705	  0.3999
     7	1	1	-10.2281	-9.22711	 1.40898
     8	1	1	-10.2281	-8.22664	-1.59283
     9	1	1	-10.2281	-8.22628	-0.599759
    10	-1	-1	-10.2281	-8.22996	0.398615
    11	-1	-1	-10.2281	-8.22961	 1.40859
    12	-1	-1	-10.2281	-7.22914	-1.59319
    13	-1	-1	-10.2281	 -7.2292	-0.601038
    14	-1	-1	-10.2281	-7.22862	0.399212
    15	-1	-1	-10.2281	 -7.2283	 1.40902
    16	-1	-1	-10.2281	-6.21869	 -1.5933
    17	-1	-1	-10.2281	-6.21855	-0.600826
    18	-1	-1	-10.2281	-6.21841	0.399474
    19	-1	-1	-10.2281	-6.21844	 1.40904
ITEM: TIMESTEP
28
ITEM: NUMBER OF ATOMS
20
ITEM: BOX BOUNDS
-10.7281	10.7281
-10.7281	10.7281
-2.10084	2.10084
ITEM: ATOMS index type q x y z
     0	1	1	-10.2281	-10.2385	-1.59277
     1	1	1	-10.2281	-10.2385	-0.600578
     2	1	1	-10.2281	-10.2384	0.399745
     3	1	1	-10.2281	-10.2382	 1.40981
     4	1	1	-10.2281	-9.22795	-1.59274
     5	1	1	-10.2281	-9.22761	-0.600298
     6	1	1	-10.2281	  -9.227	0.399974
     7	1	1	-10.2281	-9.22706	 1.40968
     8	1	1	-10.2281	-8.22654	-1.59233
     9	1	1	-10.2281	-8.22616	-0.599665
    10	-1	-1	-10.2281	-8.23009	0.398601
    11	-1	-1	-10.2281	-8.22971	 1.40926
    12	-1	-1	-10.2281	-7.22918	-1.59272
    13	-1	-1	-10.2281	-7.22924	-0.601032
    14	-1	-1	-10.2281	-7.22864	0.399237
    15	-1	-1	-10.2281	 -7.2283	 1.40972
    16	-1	-1	-10.2281	-6.21802	-1.59283
    17	-1	-1	-10.2281	-6.21787	-0.600805
    18	-1	-1	-10.2281	-6.21772	0.399517
    19	-1	-1	-10.2281	-6.21775	 1.40974
ITEM: TIMESTEP
29
ITEM: NUMBER OF ATOMS
20
ITEM: BOX BOUNDS
-10.7281	10.7281
-10.7281	10.7281
-2.10084	2.10084
ITEM: ATOMS index type q x y z
     0	1	1	-10.2281	-10.2392	-1.59229
     1	1	1	-10.2281	-10.2392	-0.600538
     2	1	1	-10.2281	-10.2391	0.399809
     3	1	1	-10.2281	-10.2389	 1.41054
     4	1	1	-10.2281	-9.22796	-1.59226
     5	1	1	-10.2281	-9.22759	-0.600239
     6	1	1	-10.2281	-9.22696	0.400053
     7	1	1	-10.2281	-9.22702	 1.41041
     8	1	1	-10.2281	-8.22643	-1.59182
     9	1	1	-10.2281	-8.22603	-0.599567
    10	-1	-1	-10.2281	-8.23022	 0.39859
    11	-1	-1	-10.2281	-8.22981	 1.40995
    12	-1	-1	-10.2281	-7.22923	-1.59224
    13	-1	-1	-10.2281	-7.22929	-0.601023
    14	-1	-1	-10.2281	-7.22865	0.399266
    15	-1	-1	-10.2281	-7.22829	 1.41044
    16	-1	-1	-10.2281	-6.21733	-1.59235
    17	-1	-1	-10.2281	-6.21717	-0.600781
    18	-1	-1	-10.2281	  -6.217	0.399565
    19	-1	-1	-10.2281	-6.21704	 1.41047
ITEM: TIMESTEP
30
ITEM: NUMBER OF ATOMS
20
ITEM: BOX BOUNDS
-10.7281	10.7281
-10.7281	10.7281
-2.10084	2.10084
ITEM: ATOMS index type q x y z
     0	1	1	-10.2281	-10.2399	 -1.5918
     1	1	1	-10.2281	  -10.24	-0.600494
     2	1	1	-10.2281	-10.2398	0.399878
     3	1	1	-10.2281	-10.2396	 1.41129
     4	1	1	-10.2281	-9.22797	-1.59178
     5	1	1	-10.2281	-9.22758	-0.600176
     6	1	1	-10.2281	-9.22691	0.400138
     7	1	1	-10.2281	-9.22698	 1.41115
     8	1	1	-10.2281	-8.22633	-1.59131
     9	1	1	-10.2281	 -8.2259	-0.599463
    10	-1	-1	-10.2281	-8.23035	0.398582
    11	-1	-1	-10.2281	-8.22991	 1.41066
    12	-1	-1	-10.2281	-7.22927	-1.59175
    13	-1	-1	-10.2281	-7.22933	-0.601011
    14	-1	-1	-10.2281	-7.22867	0.399298
    15	-1	-1	-10.2281	-7.22828	 1.41119
    16	-1	-1	-10.2281	-6.21662	-1.59187
    17	-1	-1	-10.2281	-6.21645	-0.600752
    18	-1	-1	-10.2281	-6.21627	0.399618
    19	-1	-1	-10.2281	-6.21631	 1.41122
ITEM: TIMESTEP
31
ITEM: NUMBER OF ATOMS
20
ITEM: BOX BOUNDS
-10.7281	10.7281
-10.7281	10.7281
-2.10084	2.10084
ITEM: ATOMS index type q x y z
     0	1	1	-10.2281	-10.2407	-1.59131
     1	1	1	-10.2281	-10.2407	-0.600445
     2	1	1	-10.2281	-10.2405	0.399952
     3	1	1	-10.2281	-10.2404	 1.41207
     4	1	1	-10.2281	-9.22798	-1.59129
     5	1	1	-10.2281	-9.22757	-0.600107
     6	1	1	-10.2281	-9.22687	0.400229
     7	1	1	-10.2281	-9.22694	 1.41192
     8	1	1	-10.2281	-8.22622	-1.59079
     9	1	1	-10.2281	-8.22576	-0.599353
    10	-1	-1	-10.2281	-8.23048	0.398578
    11	-1	-1	-10.2281	-8.23002	 1.41139
    12	-1	-1	-10.2281	 -7.2293	-1.59126
    13	-1	-1	-10.2281	-7.22937	-0.600996
    14	-1	-1	-10.2281	-7.22868	0.399335
    15	-1	-1	-10.2281	-7.22826	 1.41196
    16	-1	-1	-10.2281	-6.21589	-1.59139
    17	-1	-1	-10.2281	-6.21571	-0.60072
    18	-1	-1	-10.2281	-6.21552	0.399675
    19	-1	-1	-10.2281	-6.21555	 1.41199
ITEM: TIMESTEP
32
ITEM: NUMBER OF ATOMS
20
ITEM: BOX BOUNDS
-10.7281	10.7281
-10.7281	10.7281
-2.10084	2.10084
ITEM: ATOMS index type q x y z
     0	1	1	-10.2281	-10.2415	-1.59082
     1	1	1	-10.2281	-10.2415	-0.600392
     2	1	1	-10.2281	-10.2413	0.400032
     3	1	1	-10.2281	-10.2411	 1.41287
     4	1	1	-10.2281	  -9.228	-1.59079