ITEM: TIMESTEP
0 
ITEM: NUMBER OF ATOMS 
2500
ITEM: BOX BOUNDS 
-10.728122351954312	10.728122351954312
-10.728122351954312	10.728122351954312
-2.100840336134454	2.100840336134454
ITEM: ATOMS index type x y z 
0	1	-10.228122351954312	-10.228122351954312	-2.600840336134454
0	1	-9.798997457876139	-10.228122351954312	-2.600840336134454
0	1	-9.369872563797967	-10.228122351954312	-2.600840336134454
0	1	-8.940747669719794	-10.228122351954312	-2.600840336134454
0	1	-8.511622775641621	-10.228122351954312	-2.600840336134454
0	1	-8.08249788156345	-10.228122351954312	-2.600840336134454
0	1	-7.653372987485277	-10.228122351954312	-2.600840336134454
0	1	-7.2242480934071045	-10.228122351954312	-2.600840336134454
0	1	-6.795123199328932	-10.228122351954312	-2.600840336134454
0	1	-6.365998305250759	-10.228122351954312	-2.600840336134454
0	1	-5.936873411172587	-10.228122351954312	-2.600840336134454
0	1	-5.507748517094415	-10.228122351954312	-2.600840336134454
0	1	-5.078623623016242	-10.228122351954312	-2.600840336134454
0	1	-4.649498728938069	-10.228122351954312	-2.600840336134454
0	1	-4.220373834859897	-10.228122351954312	-2.600840336134454
0	1	-3.791248940781724	-10.228122351954312	-2.600840336134454
0	1	-3.362124046703552	-10.228122351954312	-2.600840336134454
0	1	-2.9329991526253796	-10.228122351954312	-2.600840336134454
0	1	-2.5038742585472065	-10.228122351954312	-2.600840336134454
0	1	-2.074749364469035	-10.228122351954312	-2.600840336134454
0	1	-1.645624470390862	-10.228122351954312	-2.600840336134454
0	1	-1.216499576312689	-10.228122351954312	-2.600840336134454
0	1	-0.7873746822345176	-10.228122351954312	-2.600840336134454
0	1	-0.35824978815634445	-10.228122351954312	-2.600840336134454
0	1	0.07087510592182866	-10.228122351954312	-2.600840336134454
0	1	0.5	-10.228122351954312	-2.600840336134454
0	1	0.9291248940781731	-10.228122351954312	-2.600840336134454
0	1	1.3582497881563462	-10.228122351954312	-2.600840336134454
0	1	1.7873746822345176	-10.228122351954312	-2.600840336134454
0	1	2.2164995763126907	-10.228122351954312	-2.600840336134454
0	1	2.645624470390864	-10.228122351954312	-2.600840336134454
0	1	3.074749364469035	-10.228122351954312	-2.600840336134454
0	1	3.5038742585472082	-10.228122351954312	-2.600840336134454
0	1	3.9329991526253814	-10.228122351954312	-2.600840336134454
0	1	4.362124046703553	-10.228122351954312	-2.600840336134454
0	1	4.791248940781726	-10.228122351954312	-2.600840336134454
0	1	5.220373834859899	-10.228122351954312	-2.600840336134454
0	1	5.64949872893807	-10.228122351954312	-2.600840336134454
0	1	6.078623623016242	-10.228122351954312	-2.600840336134454
0	1	6.5077485170944165	-10.228122351954312	-2.600840336134454
0	1	6.936873411172588	-10.228122351954312	-2.600840336134454
0	1	7.365998305250759	-10.228122351954312	-2.600840336134454
0	1	7.795123199328934	-10.228122351954312	-2.600840336134454
0	1	8.224248093407105	-10.228122351954312	-2.600840336134454
0	1	8.653372987485277	-10.228122351954312	-2.600840336134454
0	1	9.082497881563452	-10.228122351954312	-2.600840336134454
0	1	9.511622775641623	-10.228122351954312	-2.600840336134454
0	1	9.940747669719794	-10.228122351954312	-2.600840336134454
0	1	10.36987256379797	-10.228122351954312	-2.600840336134454
0	1	10.79899745787614	-10.228122351954312	-2.600840336134454
0	1	-10.228122351954312	-9.798997457876139	-2.600840336134454
1	1	-10.228122351954312	-10.228122351954312	-2.600840336134454
2	1	-9.798997457876139	-10.228122351954312	-2.600840336134454
3	1	-9.369872563797967	-10.228122351954312	-2.600840336134454
4	1	-8.940747669719794	-10.228122351954312	-2.600840336134454
5	1	-8.511622775641621	-10.228122351954312	-2.600840336134454
6	1	-8.08249788156345	-10.228122351954312	-2.600840336134454
7	1	-7.653372987485277	-10.228122351954312	-2.600840336134454
8	1	-7.2242480934071045	-10.228122351954312	-2.600840336134454
9	1	-6.795123199328932	-10.228122351954312	-2.600840336134454
10	1	-6.365998305250759	-10.228122351954312	-2.600840336134454
11	1	-5.936873411172587	-10.228122351954312	-2.600840336134454
12	1	-5.507748517094415	-10.228122351954312	-2.600840336134454
13	1	-5.078623623016242	-10.228122351954312	-2.600840336134454
14	1	-4.649498728938069	-10.228122351954312	-2.600840336134454
15	1	-4.220373834859897	-10.228122351954312	-2.600840336134454
16	1	-3.791248940781724	-10.228122351954312	-2.600840336134454
17	1	-3.362124046703552	-10.228122351954312	-2.600840336134454
18	1	-2.9329991526253796	-10.228122351954312	-2.600840336134454
19	1	-2.5038742585472065	-10.228122351954312	-2.600840336134454
20	1	-2.074749364469035	-10.228122351954312	-2.600840336134454
21	1	-1.645624470390862	-10.228122351954312	-2.600840336134454
22	1	-1.216499576312689	-10.228122351954312	-2.600840336134454
23	1	-0.7873746822345176	-10.228122351954312	-2.600840336134454
24	1	-0.35824978815634445	-10.228122351954312	-2.600840336134454
25	1	0.07087510592182866	-10.228122351954312	-2.600840336134454
26	1	0.5	-10.228122351954312	-2.600840336134454
27	1	0.9291248940781731	-10.228122351954312	-2.600840336134454
28	1	1.3582497881563462	-10.228122351954312	-2.600840336134454
29	1	1.7873746822345176	-10.228122351954312	-2.600840336134454
30	1	2.2164995763126907	-10.228122351954312	-2.600840336134454
31	1	2.645624470390864	-10.228122351954312	-2.600840336134454
32	1	3.074749364469035	-10.228122351954312	-2.600840336134454
33	1	3.5038742585472082	-10.228122351954312	-2.600840336134454
34	1	3.9329991526253814	-10.228122351954312	-2.600840336134454
35	1	4.362124046703553	-10.228122351954312	-2.600840336134454
36	1	4.791248940781726	-10.228122351954312	-2.600840336134454
37	1	5.220373834859899	-10.228122351954312	-2.600840336134454
38	1	5.64949872893807	-10.228122351954312	-2.600840336134454
39	1	6.078623623016242	-10.228122351954312	-2.600840336134454
40	1	6.5077485170944165	-10.228122351954312	-2.600840336134454
41	1	6.936873411172588	-10.228122351954312	-2.600840336134454
42	1	7.365998305250759	-10.228122351954312	-2.600840336134454
43	1	7.795123199328934	-10.228122351954312	-2.600840336134454
44	1	8.224248093407105	-10.228122351954312	-2.600840336134454
45	1	8.653372987485277	-10.228122351954312	-2.600840336134454
46	1	9.082497881563452	-10.228122351954312	-2.600840336134454
47	1	9.511622775641623	-10.228122351954312	-2.600840336134454
48	1	9.940747669719794	-10.228122351954312	-2.600840336134454
49	1	10.36987256379797	-10.228122351954312	-2.600840336134454
0	1	-10.228122351954312	-9.369872563797967	-2.600840336134454
2	1	-9.798997457876139	-10.228122351954312	-2.600840336134454
4	1	-8.940747669719794	-10.228122351954312	-2.600840336134454
6	1	-8.08249788156345	-10.228122351954312	-2.600840336134454
8	1	-7.2242480934071045	-10.228122351954312	-2.600840336134454
10	1	-6.365998305250759	-10.228122351954312	-2.600840336134454
12	1	-5.507748517094415	-10.228122351954312	-2.600840336134454
14	1	-4.649498728938069	-10.228122351954312	-2.600840336134454
16	1	-3.791248940781724	-10.228122351954312	-2.600840336134454
18	1	-2.9329991526253796	-10.228122351954312	-2.600840336134454
20	1	-2.074749364469035	-10.228122351954312	-2.600840336134454
22	1	-1.216499576312689	-10.228122351954312	-2.600840336134454
24	1	-0.35824978815634445	-10.228122351954312	-2.600840336134454
26	1	0.5	-10.228122351954312	-2.600840336134454
28	1	1.3582497881563462	-10.228122351954312	-2.600840336134454
30	1	2.2164995763126907	-10.228122351954312	-2.600840336134454
32	1	3.074749364469035	-10.228122351954312	-2.600840336134454
34	1	3.9329991526253814	-10.228122351954312	-2.600840336134454
36	1	4.791248940781726	-10.228122351954312	-2.600840336134454
38	1	5.64949872893807	-10.228122351954312	-2.600840336134454
40	1	6.5077485170944165	-10.228122351954312	-2.600840336134454
42	1	7.365998305250759	-10.228122351954312	-2.600840336134454
44	1	8.224248093407105	-10.228122351954312	-2.600840336134454
46	1	9.082497881563452	-10.228122351954312	-2.600840336134454
48	1	9.940747669719794	-10.228122351954312	-2.600840336134454
50	1	10.79899745787614	-10.228122351954312	-2.600840336134454
52	1	-9.798997457876139	-9.798997457876139	-2.600840336134454
54	1	-8.940747669719794	-9.798997457876139	-2.600840336134454
56	1	-8.08249788156345	-9.798997457876139	-2.600840336134454
58	1	-7.2242480934071045	-9.798997457876139	-2.600840336134454
60	1	-6.365998305250759	-9.798997457876139	-2.600840336134454
62	1	-5.507748517094415	-9.798997457876139	-2.600840336134454
64	1	-4.649498728938069	-9.798997457876139	-2.600840336134454
66	1	-3.791248940781724	-9.798997457876139	-2.600840336134454
68	1	-2.9329991526253796	-9.798997457876139	-2.600840336134454
70	1	-2.074749364469035	-9.798997457876139	-2.600840336134454
72	1	-1.216499576312689	-9.798997457876139	-2.600840336134454
74	1	-0.35824978815634445	-9.798997457876139	-2.600840336134454
76	1	0.5	-9.798997457876139	-2.600840336134454
78	1	1.3582497881563462	-9.798997457876139	-2.600840336134454
80	1	2.2164995763126907	-9.798997457876139	-2.600840336134454
82	1	3.074749364469035	-9.798997457876139	-2.600840336134454
84	1	3.9329991526253814	-9.798997457876139	-2.600840336134454
86	1	4.791248940781726	-9.798997457876139	-2.600840336134454
88	1	5.64949872893807	-9.798997457876139	-2.600840336134454
90	1	6.5077485170944165	-9.798997457876139	-2.600840336134454
92	1	7.365998305250759	-9.798997457876139	-2.600840336134454
94	1	8.224248093407105	-9.798997457876139	-2.600840336134454
96	1	9.082497881563452	-9.798997457876139	-2.600840336134454
98	1	9.940747669719794	-9.798997457876139	-2.600840336134454
0	1	-10.228122351954312	-8.940747669719794	-2.600840336134454
3	1	-9.369872563797967	-10.228122351954312	-2.600840336134454
6	1	-8.08249788156345	-10.228122351954312	-2.600840336134454
9	1	-6.795123199328932	-10.228122351954312	-2.600840336134454
12	1	-5.507748517094415	-10.228122351954312	-2.600840336134454
15	1	-4.220373834859897	-10.228122351954312	-2.600840336134454
18	1	-2.9329991526253796	-10.228122351954312	-2.600840336134454
21	1	-1.645624470390862	-10.228122351954312	-2.600840336134454
24	1	-0.35824978815634445	-10.228122351954312	-2.600840336134454
27	1	0.9291248940781731	-10.228122351954312	-2.600840336134454
30	1	2.2164995763126907	-10.228122351954312	-2.600840336134454
33	1	3.5038742585472082	-10.228122351954312	-2.600840336134454
36	1	4.791248940781726	-10.228122351954312	-2.600840336134454
39	1	6.078623623016242	-10.228122351954312	-2.600840336134454
42	1	7.365998305250759	-10.228122351954312	-2.600840336134454
45	1	8.653372987485277	-10.228122351954312	-2.600840336134454
48	1	9.940747669719794	-10.228122351954312	-2.600840336134454
51	1	-10.228122351954312	-9.798997457876139	-2.600840336134454
54	1	-8.940747669719794	-9.798997457876139	-2.600840336134454
57	1	-7.653372987485277	-9.798997457876139	-2.600840336134454
60	1	-6.365998305250759	-9.798997457876139	-2.600840336134454
63	1	-5.078623623016242	-9.798997457876139	-2.600840336134454
66	1	-3.791248940781724	-9.798997457876139	-2.600840336134454
69	1	-2.5038742585472065	-9.798997457876139	-2.600840336134454
72	1	-1.216499576312689	-9.798997457876139	-2.600840336134454
75	1	0.07087510592182866	-9.798997457876139	-2.600840336134454
78	1	1.3582497881563462	-9.798997457876139	-2.600840336134454
81	1	2.645624470390864	-9.798997457876139	-2.600840336134454
84	1	3.9329991526253814	-9.798997457876139	-2.600840336134454
87	1	5.220373834859899	-9.798997457876139	-2.600840336134454
90	1	6.5077485170944165	-9.798997457876139	-2.600840336134454
93	1	7.795123199328934	-9.798997457876139	-2.600840336134454
96	1	9.082497881563452	-9.798997457876139	-2.600840336134454
99	1	10.36987256379797	-9.798997457876139	-2.600840336134454
102	1	-9.798997457876139	-9.369872563797967	-2.600840336134454
105	1	-8.511622775641621	-9.369872563797967	-2.600840336134454
108	1	-7.2242480934071045	-9.369872563797967	-2.600840336134454
111	1	-5.936873411172587	-9.369872563797967	-2.600840336134454
114	1	-4.649498728938069	-9.369872563797967	-2.600840336134454
117	1	-3.362124046703552	-9.369872563797967	-2.600840336134454
120	1	-2.074749364469035	-9.369872563797967	-2.600840336134454
123	1	-0.7873746822345176	-9.369872563797967	-2.600840336134454
126	1	0.5	-9.369872563797967	-2.600840336134454
129	1	1.7873746822345176	-9.369872563797967	-2.600840336134454
132	1	3.074749364469035	-9.369872563797967	-2.600840336134454
135	1	4.362124046703553	-9.369872563797967	-2.600840336134454
138	1	5.64949872893807	-9.369872563797967	-2.600840336134454
141	1	6.936873411172588	-9.369872563797967	-2.600840336134454
144	1	8.224248093407105	-9.369872563797967	-2.600840336134454
147	1	9.511622775641623	-9.369872563797967	-2.600840336134454
0	1	-10.228122351954312	-8.511622775641621	-2.600840336134454
4	1	-8.940747669719794	-10.228122351954312	-2.600840336134454
8	1	-7.2242480934071045	-10.228122351954312	-2.600840336134454
12	1	-5.507748517094415	-10.228122351954312	-2.600840336134454
16	1	-3.791248940781724	-10.228122351954312	-2.600840336134454
20	1	-2.074749364469035	-10.228122351954312	-2.600840336134454
24	1	-0.35824978815634445	-10.228122351954312	-2.600840336134454
28	1	1.3582497881563462	-10.228122351954312	-2.600840336134454
32	1	3.074749364469035	-10.228122351954312	-2.600840336134454
36	1	4.791248940781726	-10.228122351954312	-2.600840336134454
40	1	6.5077485170944165	-10.228122351954312	-2.600840336134454
44	1	8.224248093407105	-10.228122351954312	-2.600840336134454
48	1	9.940747669719794	-10.228122351954312	-2.600840336134454
52	1	-9.798997457876139	-9.798997457876139	-2.600840336134454
56	1	-8.08249788156345	-9.798997457876139	-2.600840336134454
60	1	-6.365998305250759	-9.798997457876139	-2.600840336134454
64	1	-4.649498728938069	-9.798997457876139	-2.600840336134454
68	1	-2.9329991526253796	-9.798997457876139	-2.600840336134454
72	1	-1.216499576312689	-9.798997457876139	-2.600840336134454
76	1	0.5	-9.798997457876139	-2.600840336134454
80	1	2.2164995763126907	-9.798997457876139	-2.600840336134454
84	1	3.9329991526253814	-9.798997457876139	-2.600840336134454
88	1	5.64949872893807	-9.798997457876139	-2.600840336134454
92	1	7.365998305250759	-9.798997457876139	-2.600840336134454
96	1	9.082497881563452	-9.798997457876139	-2.600840336134454
100	1	10.79899745787614	-9.798997457876139	-2.600840336134454
104	1	-8.940747669719794	-9.369872563797967	-2.600840336134454
108	1	-7.2242480934071045	-9.369872563797967	-2.600840336134454
112	1	-5.507748517094415	-9.369872563797967	-2.600840336134454
116	1	-3.791248940781724	-9.369872563797967	-2.600840336134454
120	1	-2.074749364469035	-9.369872563797967	-2.600840336134454
124	1	-0.35824978815634445	-9.369872563797967	-2.600840336134454
128	1	1.3582497881563462	-9.369872563797967	-2.600840336134454
132	1	3.074749364469035	-9.369872563797967	-2.600840336134454
136	1	4.791248940781726	-9.369872563797967	-2.600840336134454
140	1	6.5077485170944165	-9.369872563797967	-2.600840336134454
144	1	8.224248093407105	-9.369872563797967	-2.600840336134454
148	1	9.940747669719794	-9.369872563797967	-2.600840336134454
152	1	-9.798997457876139	-8.940747669719794	-2.600840336134454
156	1	-8.08249788156345	-8.940747669719794	-2.600840336134454
160	1	-6.365998305250759	-8.940747669719794	-2.600840336134454
164	1	-4.649498728938069	-8.940747669719794	-2.600840336134454
168	1	-2.9329991526253796	-8.940747669719794	-2.600840336134454
172	1	-1.216499576312689	-8.940747669719794	-2.600840336134454
176	1	0.5	-8.940747669719794	-2.600840336134454
180	1	2.2164995763126907	-8.940747669719794	-2.600840336134454
184	1	3.9329991526253814	-8.940747669719794	-2.600840336134454
188	1	5.64949872893807	-8.940747669719794	-2.600840336134454
192	1	7.365998305250759	-8.940747669719794	-2.600840336134454
196	1	9.082497881563452	-8.940747669719794	-2.600840336134454
0	1	-10.228122351954312	-8.08249788156345	-2.600840336134454
5	1	-8.511622775641621	-10.228122351954312	-2.600840336134454
10	1	-6.365998305250759	-10.228122351954312	-2.600840336134454
15	1	-4.220373834859897	-10.228122351954312	-2.600840336134454
20	1	-2.074749364469035	-10.228122351954312	-2.600840336134454
25	1	0.07087510592182866	-10.228122351954312	-2.600840336134454
30	1	2.2164995763126907	-10.228122351954312	-2.600840336134454
35	1	4.362124046703553	-10.228122351954312	-2.600840336134454
40	1	6.5077485170944165	-10.228122351954312	-2.600840336134454
45	1	8.653372987485277	-10.228122351954312	-2.600840336134454
50	1	10.79899745787614	-10.228122351954312	-2.600840336134454
55	1	-8.511622775641621	-9.798997457876139	-2.600840336134454
60	1	-6.365998305250759	-9.798997457876139	-2.600840336134454
65	1	-4.220373834859897	-9.798997457876139	-2.600840336134454
70	1	-2.074749364469035	-9.798997457876139	-2.600840336134454
75	1	0.07087510592182866	-9.798997457876139	-2.600840336134454
80	1	2.2164995763126907	-9.798997457876139	-2.600840336134454
85	1	4.362124046703553	-9.798997457876139	-2.600840336134454
90	1	6.5077485170944165	-9.798997457876139	-2.600840336134454
95	1	8.653372987485277	-9.798997457876139	-2.600840336134454
100	1	10.79899745787614	-9.798997457876139	-2.600840336134454
105	1	-8.511622775641621	-9.369872563797967	-2.600840336134454
110	1	-6.365998305250759	-9.369872563797967	-2.600840336134454
115	1	-4.220373834859897	-9.369872563797967	-2.600840336134454
120	1	-2.074749364469035	-9.369872563797967	-2.600840336134454
125	1	0.07087510592182866	-9.369872563797967	-2.600840336134454
130	1	2.2164995763126907	-9.369872563797967	-2.600840336134454
135	1	4.362124046703553	-9.369872563797967	-2.600840336134454
140	1	6.5077485170944165	-9.369872563797967	-2.600840336134454
145	1	8.653372987485277	-9.369872563797967	-2.600840336134454
150	1	10.79899745787614	-9.369872563797967	-2.600840336134454
155	1	-8.511622775641621	-8.940747669719794	-2.600840336134454
160	1	-6.365998305250759	-8.940747669719794	-2.600840336134454
165	1	-4.220373834859897	-8.940747669719794	-2.600840336134454
170	1	-2.074749364469035	-8.940747669719794	-2.600840336134454
175	1	0.07087510592182866	-8.940747669719794	-2.600840336134454
180	1	2.2164995763126907	-8.940747669719794	-2.600840336134454
185	1	4.362124046703553	-8.940747669719794	-2.600840336134454
190	1	6.5077485170944165	-8.940747669719794	-2.600840336134454
195	1	8.653372987485277	-8.940747669719794	-2.600840336134454
200	1	10.79899745787614	-8.940747669719794	-2.600840336134454
205	1	-8.511622775641621	-8.511622775641621	-2.600840336134454
210	1	-6.365998305250759	-8.511622775641621	-2.600840336134454
215	1	-4.220373834859897	-8.511622775641621	-2.600840336134454
220	1	-2.074749364469035	-8.511622775641621	-2.600840336134454
225	1	0.07087510592182866	-8.511622775641621	-2.600840336134454
230	1	2.2164995763126907	-8.511622775641621	-2.600840336134454
235	1	4.362124046703553	-8.511622775641621	-2.600840336134454
240	1	6.5077485170944165	-8.511622775641621	-2.600840336134454
245	1	8.653372987485277	-8.511622775641621	-2.600840336134454
0	1	-10.228122351954312	-7.653372987485277	-2.600840336134454
6	1	-8.08249788156345	-10.228122351954312	-2.600840336134454
12	1	-5.507748517094415	-10.228122351954312	-2.600840336134454
18	1	-2.9329991526253796	-10.228122351954312	-2.600840336134454
24	1	-0.35824978815634445	-10.228122351954312	-2.600840336134454
30	1	2.2164995763126907	-10.228122351954312	-2.600840336134454
36	1	4.791248940781726	-10.228122351954312	-2.600840336134454
42	1	7.365998305250759	-10.228122351954312	-2.600840336134454
48	1	9.940747669719794	-10.228122351954312	-2.600840336134454
54	1	-8.940747669719794	-9.798997457876139	-2.600840336134454
60	1	-6.365998305250759	-9.798997457876139	-2.600840336134454
66	1	-3.791248940781724	-9.798997457876139	-2.600840336134454
72	1	-1.216499576312689	-9.798997457876139	-2.600840336134454
78	1	1.3582497881563462	-9.798997457876139	-2.600840336134454
84	1	3.9329991526253814	-9.798997457876139	-2.600840336134454
90	1	6.5077485170944165	-9.798997457876139	-2.600840336134454
96	1	9.082497881563452	-9.798997457876139	-2.600840336134454
102	1	-9.798997457876139	-9.369872563797967	-2.600840336134454
108	1	-7.2242480934071045	-9.369872563797967	-2.600840336134454
114	1	-4.649498728938069	-9.369872563797967	-2.600840336134454
120	1	-2.074749364469035	-9.369872563797967	-2.600840336134454
126	1	0.5	-9.369872563797967	-2.600840336134454
132	1	3.074749364469035	-9.369872563797967	-2.600840336134454
138	1	5.64949872893807	-9.369872563797967	-2.600840336134454
144	1	8.224248093407105	-9.369872563797967	-2.600840336134454
150	1	10.79899745787614	-9.369872563797967	-2.600840336134454
156	1	-8.08249788156345	-8.940747669719794	-2.600840336134454
162	1	-5.507748517094415	-8.940747669719794	-2.600840336134454
168	1	-2.9329991526253796	-8.940747669719794	-2.600840336134454
174	1	-0.35824978815634445	-8.940747669719794	-2.600840336134454
180	1	2.2164995763126907	-8.940747669719794	-2.600840336134454
186	1	4.791248940781726	-8.940747669719794	-2.600840336134454
192	1	7.365998305250759	-8.940747669719794	-2.600840336134454
198	1	9.940747669719794	-8.940747669719794	-2.600840336134454
204	1	-8.940747669719794	-8.511622775641621	-2.600840336134454
210	1	-6.365998305250759	-8.511622775641621	-2.600840336134454
216	1	-3.791248940781724	-8.511622775641621	-2.600840336134454
222	1	-1.216499576312689	-8.511622775641621	-2.600840336134454
228	1	1.3582497881563462	-8.511622775641621	-2.600840336134454
234	1	3.9329991526253814	-8.511622775641621	-2.600840336134454
240	1	6.5077485170944165	-8.511622775641621	-2.600840336134454
246	1	9.082497881563452	-8.511622775641621	-2.600840336134454
252	1	-9.798997457876139	-8.08249788156345	-2.600840336134454
258	1	-7.2242480934071045	-8.08249788156345	-2.600840336134454
264	1	-4.649498728938069	-8.08249788156345	-2.600840336134454
270	1	-2.074749364469035	-8.08249788156345	-2.600840336134454
276	1	0.5	-8.08249788156345	-2.600840336134454
282	1	3.074749364469035	-8.08249788156345	-2.600840336134454
288	1	5.64949872893807	-8.08249788156345	-2.600840336134454
294	1	8.224248093407105	-8.08249788156345	-2.600840336134454
0	1	-10.228122351954312	-7.2242480934071045	-2.600840336134454
7	1	-7.653372987485277	-10.228122351954312	-2.600840336134454
14	1	-4.649498728938069	-10.228122351954312	-2.600840336134454
21	1	-1.645624470390862	-10.228122351954312	-2.600840336134454
28	1	1.3582497881563462	-10.228122351954312	-2.600840336134454
35	1	4.362124046703553	-10.228122351954312	-2.600840336134454
42	1	7.365998305250759	-10.228122351954312	-2.600840336134454
49	1	10.36987256379797	-10.228122351954312	-2.600840336134454
56	1	-8.08249788156345	-9.798997457876139	-2.600840336134454
63	1	-5.078623623016242	-9.798997457876139	-2.600840336134454
70	1	-2.074749364469035	-9.798997457876139	-2.600840336134454
77	1	0.9291248940781731	-9.798997457876139	-2.600840336134454
84	1	3.9329991526253814	-9.798997457876139	-2.600840336134454
91	1	6.936873411172588	-9.798997457876139	-2.600840336134454
98	1	9.940747669719794	-9.798997457876139	-2.600840336134454
105	1	-8.511622775641621	-9.369872563797967	-2.600840336134454
112	1	-5.507748517094415	-9.369872563797967	-2.600840336134454
119	1	-2.5038742585472065	-9.369872563797967	-2.600840336134454
126	1	0.5	-9.369872563797967	-2.600840336134454
133	1	3.5038742585472082	-9.369872563797967	-2.600840336134454
140	1	6.5077485170944165	-9.369872563797967	-2.600840336134454
147	1	9.511622775641623	-9.369872563797967	-2.600840336134454
154	1	-8.940747669719794	-8.940747669719794	-2.600840336134454
161	1	-5.936873411172587	-8.940747669719794	-2.600840336134454
168	1	-2.9329991526253796	-8.940747669719794	-2.600840336134454
175	1	0.07087510592182866	-8.940747669719794	-2.600840336134454
182	1	3.074749364469035	-8.940747669719794	-2.600840336134454
189	1	6.078623623016242	-8.940747669719794	-2.600840336134454
196	1	9.082497881563452	-8.940747669719794	-2.600840336134454
203	1	-9.369872563797967	-8.511622775641621	-2.600840336134454
210	1	-6.365998305250759	-8.511622775641621	-2.600840336134454
217	1	-3.362124046703552	-8.511622775641621	-2.600840336134454
224	1	-0.35824978815634445	-8.511622775641621	-2.600840336134454
231	1	2.645624470390864	-8.511622775641621	-2.600840336134454
238	1	5.64949872893807	-8.511622775641621	-2.600840336134454
245	1	8.653372987485277	-8.511622775641621	-2.600840336134454
252	1	-9.798997457876139	-8.08249788156345	-2.600840336134454
259	1	-6.795123199328932	-8.08249788156345	-2.600840336134454
266	1	-3.791248940781724	-8.08249788156345	-2.600840336134454
273	1	-0.7873746822345176	-8.08249788156345	-2.600840336134454
280	1	2.2164995763126907	-8.08249788156345	-2.600840336134454
287	1	5.220373834859899	-8.08249788156345	-2.600840336134454
294	1	8.224248093407105	-8.08249788156345	-2.600840336134454
301	1	-10.228122351954312	-7.653372987485277	-2.600840336134454
308	1	-7.2242480934071045	-7.653372987485277	-2.600840336134454
315	1	-4.220373834859897	-7.653372987485277	-2.600840336134454
322	1	-1.216499576312689	-7.653372987485277	-2.600840336134454
329	1	1.7873746822345176	-7.653372987485277	-2.600840336134454
336	1	4.791248940781726	-7.653372987485277	-2.600840336134454
343	1	7.795123199328934	-7.653372987485277	-2.600840336134454
0	1	-10.228122351954312	-6.795123199328932	-2.600840336134454
8	1	-7.2242480934071045	-10.228122351954312	-2.600840336134454
16	1	-3.791248940781724	-10.228122351954312	-2.600840336134454
24	1	-0.35824978815634445	-10.228122351954312	-2.600840336134454
32	1	3.074749364469035	-10.228122351954312	-2.600840336134454
40	1	6.5077485170944165	-10.228122351954312	-2.600840336134454
48	1	9.940747669719794	-10.228122351954312	-2.600840336134454
56	1	-8.08249788156345	-9.798997457876139	-2.600840336134454
64	1	-4.649498728938069	-9.798997457876139	-2.600840336134454
72	1	-1.216499576312689	-9.798997457876139	-2.600840336134454
80	1	2.2164995763126907	-9.798997457876139	-2.600840336134454
88	1	5.64949872893807	-9.798997457876139	-2.600840336134454
96	1	9.082497881563452	-9.798997457876139	-2.600840336134454
104	1	-8.940747669719794	-9.369872563797967	-2.600840336134454
112	1	-5.507748517094415	-9.369872563797967	-2.600840336134454
120	1	-2.074749364469035	-9.369872563797967	-2.600840336134454
128	1	1.3582497881563462	-9.369872563797967	-2.600840336134454
136	1	4.791248940781726	-9.369872563797967	-2.600840336134454
144	1	8.224248093407105	-9.369872563797967	-2.600840336134454
152	1	-9.798997457876139	-8.940747669719794	-2.600840336134454
160	1	-6.365998305250759	-8.940747669719794	-2.600840336134454
168	1	-2.9329991526253796	-8.940747669719794	-2.600840336134454
176	1	0.5	-8.940747669719794	-2.600840336134454
184	1	3.9329991526253814	-8.940747669719794	-2.600840336134454
192	1	7.365998305250759	-8.940747669719794	-2.600840336134454
200	1	10.79899745787614	-8.940747669719794	-2.600840336134454
208	1	-7.2242480934071045	-8.511622775641621	-2.600840336134454
216	1	-3.791248940781724	-8.511622775641621	-2.600840336134454
224	1	-0.35824978815634445	-8.511622775641621	-2.600840336134454
232	1	3.074749364469035	-8.511622775641621	-2.600840336134454
240	1	6.5077485170944165	-8.511622775641621	-2.600840336134454
248	1	9.940747669719794	-8.511622775641621	-2.600840336134454
256	1	-8.08249788156345	-8.08249788156345	-2.600840336134454
264	1	-4.649498728938069	-8.08249788156345	-2.600840336134454
272	1	-1.216499576312689	-8.08249788156345	-2.600840336134454
280	1	2.2164995763126907	-8.08249788156345	-2.600840336134454
288	1	5.64949872893807	-8.08249788156345	-2.600840336134454
296	1	9.082497881563452	-8.08249788156345	-2.600840336134454
304	1	-8.940747669719794	-7.653372987485277	-2.600840336134454
312	1	-5.507748517094415	-7.653372987485277	-2.600840336134454
320	1	-2.074749364469035	-7.653372987485277	-2.600840336134454
328	1	1.3582497881563462	-7.653372987485277	-2.600840336134454
336	1	4.791248940781726	-7.653372987485277	-2.600840336134454
344	1	8.224248093407105	-7.653372987485277	-2.600840336134454
352	1	-9.798997457876139	-7.2242480934071045	-2.600840336134454
360	1	-6.365998305250759	-7.2242480934071045	-2.600840336134454
368	1	-2.9329991526253796	-7.2242480934071045	-2.600840336134454
376	1	0.5	-7.2242480934071045	-2.600840336134454
384	1	3.9329991526253814	-7.2242480934071045	-2.600840336134454
392	1	7.365998305250759	-7.2242480934071045	-2.600840336134454
0	1	-10.228122351954312	-6.365998305250759	-2.600840336134454
9	1	-6.795123199328932	-10.228122351954312	-2.600840336134454
18	1	-2.9329991526253796	-10.228122351954312	-2.600840336134454
27	1	0.9291248940781731	-10.228122351954312	-2.600840336134454
36	1	4.791248940781726	-10.228122351954312	-2.600840336134454
45	1	8.653372987485277	-10.228122351954312	-2.600840336134454
54	1	-8.940747669719794	-9.798997457876139	-2.600840336134454
63	1	-5.078623623016242	-9.798997457876139	-2.600840336134454
72	1	-1.216499576312689	-9.798997457876139	-2.600840336134454
81	1	2.645624470390864	-9.798997457876139	-2.600840336134454
90	1	6.5077485170944165	-9.798997457876139	-2.600840336134454
99	1	10.36987256379797	-9.798997457876139	-2.600840336134454
108	1	-7.2242480934071045	-9.369872563797967	-2.600840336134454
117	1	-3.362124046703552	-9.369872563797967	-2.600840336134454
126	1	0.5	-9.369872563797967	-2.600840336134454
135	1	4.362124046703553	-9.369872563797967	-2.600840336134454
144	1	8.224248093407105	-9.369872563797967	-2.600840336134454
153	1	-9.369872563797967	-8.940747669719794	-2.600840336134454
162	1	-5.507748517094415	-8.940747669719794	-2.600840336134454
171	1	-1.645624470390862	-8.940747669719794	-2.600840336134454
180	1	2.2164995763126907	-8.940747669719794	-2.600840336134454
189	1	6.078623623016242	-8.940747669719794	-2.600840336134454
198	1	9.940747669719794	-8.940747669719794	-2.600840336134454
207	1	-7.653372987485277	-8.511622775641621	-2.600840336134454
216	1	-3.791248940781724	-8.511622775641621	-2.600840336134454
225	1	0.07087510592182866	-8.511622775641621	-2.600840336134454
234	1	3.9329991526253814	-8.511622775641621	-2.600840336134454
243	1	7.795123199328934	-8.511622775641621	-2.600840336134454
252	1	-9.798997457876139	-8.08249788156345	-2.600840336134454
261	1	-5.936873411172587	-8.08249788156345	-2.600840336134454